  MPI-parallelism will be employed.
------------------------------------------------------------
          Invoking FHI-aims ...
          Version 171221_1
          Compiled on 2020/07/14 at 14:43:00 on host scc1.

          When using FHI-aims, please cite the following reference:

          Volker Blum, Ralf Gehrke, Felix Hanke, Paula Havu,
          Ville Havu, Xinguo Ren, Karsten Reuter, and Matthias Scheffler,
          'Ab Initio Molecular Simulations with Numeric Atom-Centered Orbitals',
          Computer Physics Communications 180, 2175-2196 (2009)

          For any questions about FHI-aims, please visit the aimsclub website
          with its forums and wiki. Contributions to both the forums and the
          wiki are warmly encouraged - they are for you, and everyone is welcome there.

------------------------------------------------------------



  Date     :  20221011, Time     :  154218.804
  Time zero on CPU 1             :   0.559190000000000E-01  s.
  Internal wall clock time zero  :           434734938.804  s.

  FHI-aims created a unique identifier for this run for later identification
  aims_uuid : F4E88326-0EBB-4FD0-A40E-2E6F0B9BA78B

  Using       16 parallel tasks.
  Task        0 on host scc-pg6 reporting.
  Task        1 on host scc-pg6 reporting.
  Task        2 on host scc-pg6 reporting.
  Task        3 on host scc-pg6 reporting.
  Task        4 on host scc-pg6 reporting.
  Task        5 on host scc-pg6 reporting.
  Task        6 on host scc-pg6 reporting.
  Task        7 on host scc-pg6 reporting.
  Task        8 on host scc-pg6 reporting.
  Task        9 on host scc-pg6 reporting.
  Task       10 on host scc-pg6 reporting.
  Task       11 on host scc-pg6 reporting.
  Task       12 on host scc-pg6 reporting.
  Task       13 on host scc-pg6 reporting.
  Task       14 on host scc-pg6 reporting.
  Task       15 on host scc-pg6 reporting.

  Performing system and environment tests:
  | Environment variable OMP_NUM_THREADS correctly set to 1.
  | Stacksize not measured: no C compiler
  | Checking for scalapack...
  | Testing pdtran()...
  | All pdtran() tests passed.

  Obtaining array dimensions for all initial allocations:
  
  -----------------------------------------------------------------------
  Parsing control.in (first pass over file, find array dimensions only).
  The contents of control.in will be repeated verbatim below
  unless switched off by setting 'verbatim_writeout .false.' .
  in the first line of control.in .
  -----------------------------------------------------------------------
  
  ##################################################
  #
  #  input file :  au18 - benzimid - au18
  #
  ##################################################
  #
  #  Physical model
  #
    xc                 pbe
    spin               none
    charge             0.
  #  KS_method	     lapack_fast
  #
  #  SCF convergence
  #
    occupation_type    gaussian 0.01
    mixer              pulay
      n_max_pulay        10
      charge_mix_param   0.2
    sc_accuracy_rho    1E-4
    sc_accuracy_eev    1E-2
    sc_accuracy_etot   1E-6
  # sc_accuracy_forces 1E-4
    sc_iter_limit      500
  #
  #  Relaxation
  #
    relax_geometry   bfgs 1.e-2
  #
  
  #  output an overlap matrix & wave functions
  #  to enable a post-processor transport calculation :
  #   output aitranss
  
  #  to enable restart of the calculation
  #  restart aims.restart
  
  #  scalar-relativistic treatment
     relativistic atomic_zora scalar
  #
  ################################################################################
  #
  #  FHI-aims code project
  #  VB, Fritz-Haber Institut, 2009
  #
  #  Suggested "light" defaults for Au atom (to be pasted into control.in file)
  #  Be sure to double-check any results obtained with these settings for post-processing,
  #  e.g., with the "tight" defaults and larger basis sets.
  #
  ################################################################################
    species        Au
  #     global species definitions
      nucleus             79
      mass                196.966569
  #
      l_hartree           4
  #
      cut_pot             3.5  1.5  1.0
      basis_dep_cutoff    1e-4
  #
      radial_base         73 5.0
      radial_multiplier   1
      angular_grids specified
        division   0.5066   50
        division   0.9861  110
        division   1.2821  194
        division   1.5344  302
  #      division   2.0427  434
  #      division   2.1690  590
  #      division   2.2710  770
  #      division   2.3066  974
  #      division   2.7597 1202
  #      outer_grid 974
        outer_grid 302
  ################################################################################
  #
  #  Definition of "minimal" basis
  #
  ################################################################################
  #     valence basis states
      valence      6  s   1.
      valence      5  p   6.
      valence      5  d  10.
      valence      4  f  14.
  #     ion occupancy
      ion_occ     6  s   0.
      ion_occ     5  p   6.
      ion_occ     5  d   9.
      ion_occ     4  f   14.
  ################################################################################
  #
  #  Suggested additional basis functions. For production calculations,
  #  uncomment them one after another (the most important basis functions are
  #  listed first).
  #
  #  Constructed for dimers: 2.10, 2.45, 3.00, 4.00 AA
  #
  ################################################################################
  #  "First tier" - max. impr. -161.60  meV, min. impr. -4.53 meV
       ionic 6 p auto
       hydro 4 f 7.4
       ionic 6 s auto
       hydro 5 g 10
       hydro 6 h 12.8
       hydro 3 d 2.5
  #  "Second tier" - max. impr. -2.46  meV, min. impr. -0.28 meV
  #     hydro 5 f 14.8
  #     hydro 4 d 3.9
  #     hydro 3 p 3.3
  #     hydro 1 s 0.45
  #     hydro 5 g 16.4
  #     hydro 6 h 13.6
  #  "Third tier" - max. impr. -0.49  meV, min. impr. -0.09 meV
  #     hydro 4 f 5.2
  #     hydro 4 d 5
  #     hydro 5 g 8
  #     hydro 5 p 8.2
  #     hydro 6 d 12.4
  #     hydro 6 s 14.8
  #  Further basis functions: -0.08 meV and below
  #     hydro 5 f 18.8
  #     hydro 5 g 20
  #    hydro 5 g 15.2
  ################################################################################
  #
  #  FHI-aims code project
  #  VB, Fritz-Haber Institut, 2009
  #
  #  Suggested "light" defaults for C atom (to be pasted into control.in file)
  #  Be sure to double-check any results obtained with these settings for post-processing,
  #  e.g., with the "tight" defaults and larger basis sets.
  #
  ################################################################################
    species        C
  #     global species definitions
      nucleus             6
      mass                12.0107
  #
      l_hartree           4
  #
      cut_pot             3.5  1.5  1.0
      basis_dep_cutoff    1e-4
  #
      radial_base         34 5.0
      radial_multiplier   1
      angular_grids specified
        division   0.3326   50
        division   0.5710  110
        division   0.7727  194
        division   0.8772  302
  #      division   0.9334  434
  #      division   0.9625  590
  #      division   0.9924  770
  #      division   1.0230  974
  #      division   1.4589 1202
  #     outer_grid  974
       outer_grid 302
  ################################################################################
  #
  #  Definition of "minimal" basis
  #
  ################################################################################
  #     valence basis states
      valence      2  s   2.
      valence      2  p   2.
  #     ion occupancy
      ion_occ      2  s   1.
      ion_occ      2  p   1.
  ################################################################################
  #
  #  Suggested additional basis functions. For production calculations,
  #  uncomment them one after another (the most important basis functions are
  #  listed first).
  #
  #  Constructed for dimers: 1.0 A, 1.25 A, 1.5 A, 2.0 A, 3.0 A
  #
  ################################################################################
  #  "First tier" - improvements: -1214.57 meV to -155.61 meV
       hydro 2 p 1.7
       hydro 3 d 6
       hydro 2 s 4.9
  #  "Second tier" - improvements: -67.75 meV to -5.23 meV
  #     hydro 4 f 9.8
  #     hydro 3 p 5.2
  #     hydro 3 s 4.3
  #     hydro 5 g 14.4
  #     hydro 3 d 6.2
  #  "Third tier" - improvements: -2.43 meV to -0.60 meV
  #     hydro 2 p 5.6
  #     hydro 2 s 1.4
  #     hydro 3 d 4.9
  #     hydro 4 f 11.2
  #  "Fourth tier" - improvements: -0.39 meV to -0.18 meV
  #     hydro 2 p 2.1
  #     hydro 5 g 16.4
  #     hydro 4 d 13.2
  #     hydro 3 s 13.6
  #     hydro 4 f 17.6
  #  Further basis functions - improvements: -0.08 meV and below
  #     hydro 3 s 2
  #     hydro 3 p 6
  #     hydro 4 d 20
  ################################################################################
  #
  #  FHI-aims code project
  #  VB, Fritz-Haber Institut, 2009
  #
  #  Suggested "light" defaults for H atom (to be pasted into control.in file)
  #  Be sure to double-check any results obtained with these settings for post-processing,
  #  e.g., with the "tight" defaults and larger basis sets.
  #
  ################################################################################
    species        H
  #     global species definitions
      nucleus             1
      mass                1.00794
  #
      l_hartree           4
  #
      cut_pot             3.5  1.5  1.0
      basis_dep_cutoff    1e-4
  #
      radial_base         24 5.0
      radial_multiplier   1
      angular_grids       specified
        division   0.2421   50
        division   0.3822  110
        division   0.4799  194
        division   0.5341  302
  #      division   0.5626  434
  #      division   0.5922  590
  #      division   0.6542  770
  #      division   0.6868 1202
  #      outer_grid  770
        outer_grid  302
  ################################################################################
  #
  #  Definition of "minimal" basis
  #
  ################################################################################
  #     valence basis states
      valence      1  s   1.
  #     ion occupancy
      ion_occ      1  s   0.5
  ################################################################################
  #
  #  Suggested additional basis functions. For production calculations,
  #  uncomment them one after another (the most important basis functions are
  #  listed first).
  #
  #  Basis constructed for dimers: 0.5 A, 0.7 A, 1.0 A, 1.5 A, 2.5 A
  #
  ################################################################################
  #  "First tier" - improvements: -1014.90 meV to -62.69 meV
       hydro 2 s 2.1
       hydro 2 p 3.5
  #  "Second tier" - improvements: -12.89 meV to -1.83 meV
  #     hydro 1 s 0.85
  #     hydro 2 p 3.7
  #     hydro 2 s 1.2
  #     hydro 3 d 7
  #  "Third tier" - improvements: -0.25 meV to -0.12 meV
  #     hydro 4 f 11.2
  #     hydro 3 p 4.8
  #     hydro 4 d 9
  #     hydro 3 s 3.2
  ################################################################################
  #
  #  FHI-aims code project
  #  VB, Fritz-Haber Institut, 2009
  #
  #  Suggested "light" defaults for N atom (to be pasted into control.in file)
  #  Be sure to double-check any results obtained with these settings for post-processing,
  #  e.g., with the "tight" defaults and larger basis sets.
  #
  ################################################################################
    species        N
  #     global species definitions
      nucleus             7
      mass                14.0067
  #
      l_hartree           4
  #
      cut_pot             3.5  1.5  1.0
      basis_dep_cutoff    1e-4
  #
      radial_base         35 5.0
      radial_multiplier   1
      angular_grids       specified
        division   0.2599   50
        division   0.4601  110
        division   0.5885  194
        division   0.6503  302
  #      division   0.6939  434
  #      division   0.7396  590
  #      division   0.7632  770
  #      division   0.8122  974
  #      division   1.1604 1202
  #      outer_grid  974
        outer_grid  302
  ################################################################################
  #
  #  Definition of "minimal" basis
  #
  ################################################################################
  #     valence basis states
      valence      2  s   2.
      valence      2  p   3.
  #     ion occupancy
      ion_occ      2  s   1.
      ion_occ      2  p   2.
  ################################################################################
  #
  #  Suggested additional basis functions. For production calculations,
  #  uncomment them one after another (the most important basis functions are
  #  listed first).
  #
  #  Constructed for dimers: 1.0 A, 1.1 A, 1.5 A, 2.0 A, 3.0 A
  #
  ################################################################################
  #  "First tier" - improvements: -1193.42 meV to -220.60 meV
       hydro 2 p 1.8
       hydro 3 d 6.8
       hydro 3 s 5.8
  #  "Second tier" - improvements: -80.21 meV to -6.86 meV
  #     hydro 4 f 10.8
  #     hydro 3 p 5.8
  #     hydro 1 s 0.8
  #     hydro 5 g 16
  #     hydro 3 d 4.9
  #  "Third tier" - improvements: -4.29 meV to -0.53 meV
  #     hydro 3 s 16
  #     ionic 2 p auto
  #     hydro 3 d 6.6
  #     hydro 4 f 11.6
  #  "Fourth tier" - improvements: -0.75 meV to -0.25 meV
  #     hydro 2 p 4.5
  #     hydro 2 s 2.4
  #     hydro 5 g 14.4
  #     hydro 4 d 14.4
  #     hydro 4 f 16.8
  # Further basis functions - -0.21 meV and below
  #     hydro 3 p 14.8
  #     hydro 3 s 4.4
  #     hydro 3 d 19.6
  #     hydro 5 g 12.8
  
  
  -----------------------------------------------------------------------
  Completed first pass over input file control.in .
  -----------------------------------------------------------------------
  
  
  -----------------------------------------------------------------------
  Parsing geometry.in (first pass over file, find array dimensions only).
  The contents of geometry.in will be repeated verbatim below
  unless switched off by setting 'verbatim_writeout .false.' .
  in the first line of geometry.in .
  -----------------------------------------------------------------------
  
  # opt: au
  atom             1.767636292      3.131370022     12.112922728   N
  atom             1.726898229      2.917589979     13.425362857   C
  atom             1.146636358      2.026794107     11.558683803   C
  atom             0.748496252      1.160490216     12.560179978   C
  atom             1.120872203      1.738183248     13.761316136   N
  atom             2.124348956      3.595762699     14.176345422   H
  atom             0.234935382      0.204770994     12.521136033   H
  atom             1.050794700      1.918731414     10.066851972   C
  atom             0.540585524      2.819113459      9.678011726   H
  atom             0.450522450      1.049828065      9.759301253   H
  atom             2.456760993      1.856648765      9.459943482   C
  atom             3.116435185      2.503595302     10.058604634   H
  atom             2.852874083      0.832344375      9.485975000   H
  atom             2.474924035      2.322480424      8.039502082   N
  atom             2.152210525      3.295947588      8.016952656   H
  atom             3.440814110      2.339618826      7.698339848   H
  atom            1.367550532      1.284936758      6.422971893   Au
  atom           -0.666286029      0.524497119      4.834202342   Au
  atom            1.350924740      2.487094394      3.949018455   Au
  atom            2.125575014     -0.348554274      4.393374959   Au
  atom           -2.674926381     -0.297340316      3.063996300   Au
   	constrain_relaxation .true.
  atom           -0.700893484      1.645763010      2.261873167   Au
   	constrain_relaxation .true.
  atom            1.273139394      3.588866330      1.459750046   Au
   	constrain_relaxation .true.
  atom            0.063929027     -1.105663218      2.662570147   Au
   	constrain_relaxation .true.
  atom            2.037961924      0.837440111      1.860447023   Au
   	constrain_relaxation .true.
  atom            2.802784450     -1.913986127      2.261144006   Au
   	constrain_relaxation .true.
  atom           -2.738855408      0.808322899      0.401426144   Au
   	constrain_relaxation .true.
  atom           -0.764822516      2.751426221     -0.400696978   Au
   	constrain_relaxation .true.
  atom           -1.974032897     -1.943103329      0.802123124   Au
   	constrain_relaxation .true.
  atom            0.000000000      0.000000000      0.000000000   Au
   	constrain_relaxation .true.
  atom            1.974032891      1.943103322     -0.802123122   Au
   	constrain_relaxation .true.
  atom            0.764822526     -2.751426239      0.400696983   Au
   	constrain_relaxation .true.
  atom            2.738855416     -0.808322907     -0.401426152   Au
   	constrain_relaxation .true.
  atom           -1.910103859     -3.048766529      3.464693276   Au
   	constrain_relaxation .true.
  atom            0.998965789      1.012483929     15.687923675   Au
  atom            0.671502557      2.378935968     18.024082529   Au
  atom           -0.792902698     -0.109697326     17.425587518   Au
  atom            2.093003412     -0.230465447     17.797920077   Au
  atom            0.401861815      3.652059694     20.450530084   Au
   	constrain_relaxation .true.
  atom           -1.076016603      1.248682514     19.854282320   Au
   	constrain_relaxation .true.
  atom           -2.553895028     -1.154694659     19.258034554   Au
   	constrain_relaxation .true.
  atom            1.777940972      1.125877014     20.248874258   Au
   	constrain_relaxation .true.
  atom            0.300062554     -1.277500166     19.652626494   Au
   	constrain_relaxation .true.
  atom            3.154020137     -1.400305670     20.047218443   Au
   	constrain_relaxation .true.
  atom           -1.376079158      2.526182678     22.422124534   Au
   	constrain_relaxation .true.
  atom           -2.853957576      0.122805499     21.825876770   Au
   	constrain_relaxation .true.
  atom            1.477878425      2.403377174     22.816716484   Au
   	constrain_relaxation .true.
  atom           -0.000000001      0.000000001     22.220468718   Au
   	constrain_relaxation .true.
  atom           -1.477878418     -2.403377179     21.624220954   Au
   	constrain_relaxation .true.
  atom            2.853957582     -0.122805506     22.615060658   Au
   	constrain_relaxation .true.
  atom            1.376079156     -2.526182679     22.018812892   Au
   	constrain_relaxation .true.
  atom            3.255819397      3.529254190     20.845122033   Au
   	constrain_relaxation .true.
  
  -----------------------------------------------------------------------
  Completed first pass over input file geometry.in .
  -----------------------------------------------------------------------
  

  Basic array size parameters:
  | Number of species                 :        4
  | Number of atoms                   :       52
  | Max. basis fn. angular momentum   :        5
  | Max. atomic/ionic basis occupied n:        6
  | Max. number of basis fn. types    :        3
  | Max. radial fns per species/type  :       14
  | Max. logarithmic grid size        :     1488
  | Max. radial integration grid size :       73
  | Max. angular integration grid size:      302
  | Max. angular grid division number :        8
  | Radial grid for Hartree potential :     1488
  | Number of spin channels           :        1

------------------------------------------------------------
          Reading file control.in.
------------------------------------------------------------
  XC: Using PBE gradient-corrected functionals.
  Spin treatment: No spin polarisation.
  Charge =   0.000000E+00: Neutral system requested explicitly.
  Occupation type: Gaussian broadening, width =   0.100000E-01 eV.
  Using pulay charge density mixing.
  Pulay mixing - number of memorized iterations:   10
  Charge density mixing - mixing parameter:     0.2000
  Convergence accuracy of self-consistent charge density:  0.1000E-03
  Convergence accuracy of sum of eigenvalues:  0.1000E-01
  Convergence accuracy of total energy:  0.1000E-05
  Maximum number of s.-c. iterations  :   500
  Geometry relaxation: Modified BFGS - TRM (trust radius method, i.e., trusted quadratic extrapolation).
  Convergence accuracy for geometry relaxation: Maximum force <   0.100000E-01 eV/A.
  Scalar relativistic treatment of kinetic energy: on-site free-atom approximation to ZORA.
 
  Reading configuration options for species Au                  .
  | Found nuclear charge :  79.0000
  | Found atomic mass :    196.966569000000      amu
  | Found l_max for Hartree potential  :   4
  | Found cutoff potl. onset [A], width [A], scale factor :    3.50000    1.50000    1.00000
  | Threshold for basis-dependent cutoff potential is   0.100000E-03
  | Found data for basic radial integration grid :    73 points, outermost radius =    5.000 A
  | Found multiplier for basic radial grid :   1
  | Found angular grid specification: user-specified.
  | Specified grid contains     5 separate shells.
  | Check grid settings after all constraints further below.
  | Found free-atom valence shell :  6 s   1.000
  | Found free-atom valence shell :  5 p   6.000
  | Found free-atom valence shell :  5 d  10.000
  | Found free-atom valence shell :  4 f  14.000
  | Found free-ion valence shell :  6 s   0.000
  | Found free-ion valence shell :  5 p   6.000
  | Found free-ion valence shell :  5 d   9.000
  | Found free-ion valence shell :  4 f  14.000
  | Found ionic basis function :  6 p , default cutoff radius.
  | Found hydrogenic basis function :  4 f   7.400
  | Found ionic basis function :  6 s , default cutoff radius.
  | Found hydrogenic basis function :  5 g  10.000
  | Found hydrogenic basis function :  6 h  12.800
  | Found hydrogenic basis function :  3 d   2.500
  Species Au                  : Missing cutoff potential type.
  Defaulting to exp(1/x)/(1-x)^2 type cutoff potential.
  Species Au: No 'logarithmic' tag. Using default grid for free atom:
  | Default logarithmic grid data [bohr] : 0.1000E-03 0.1000E+03 0.1012E+01
  | Will include ionic basis functions of  2.0-fold positive Au                   ion.
  Species Au: On-site basis accuracy parameter (for Gram-Schmidt orthonormalisation) not specified.
  Using default value basis_acc =  0.1000000E-03.
  Species Au                  : Using default innermost maximum threshold i_radial=  2 for radial functions.
  Species Au                  : Default cutoff onset for free atom density etc. : 0.35000000E+01 AA.
  Species Au                  : Basic radial grid will be enhanced according to radial_multiplier =   1, to contain    73 grid points.
 
  Reading configuration options for species C                   .
  | Found nuclear charge :   6.0000
  | Found atomic mass :    12.0107000000000      amu
  | Found l_max for Hartree potential  :   4
  | Found cutoff potl. onset [A], width [A], scale factor :    3.50000    1.50000    1.00000
  | Threshold for basis-dependent cutoff potential is   0.100000E-03
  | Found data for basic radial integration grid :    34 points, outermost radius =    5.000 A
  | Found multiplier for basic radial grid :   1
  | Found angular grid specification: user-specified.
  | Specified grid contains     5 separate shells.
  | Check grid settings after all constraints further below.
  | Found free-atom valence shell :  2 s   2.000
  | Found free-atom valence shell :  2 p   2.000
  | Found free-ion valence shell :  2 s   1.000
  | Found free-ion valence shell :  2 p   1.000
  | Found hydrogenic basis function :  2 p   1.700
  | Found hydrogenic basis function :  3 d   6.000
  | Found hydrogenic basis function :  2 s   4.900
  Species C                   : Missing cutoff potential type.
  Defaulting to exp(1/x)/(1-x)^2 type cutoff potential.
  Species C : No 'logarithmic' tag. Using default grid for free atom:
  | Default logarithmic grid data [bohr] : 0.1000E-03 0.1000E+03 0.1012E+01
  Species C : On-site basis accuracy parameter (for Gram-Schmidt orthonormalisation) not specified.
  Using default value basis_acc =  0.1000000E-03.
  Species C                   : Using default innermost maximum threshold i_radial=  2 for radial functions.
  Species C                   : Default cutoff onset for free atom density etc. : 0.35000000E+01 AA.
  Species C                   : Basic radial grid will be enhanced according to radial_multiplier =   1, to contain    34 grid points.
 
  Reading configuration options for species H                   .
  | Found nuclear charge :   1.0000
  | Found atomic mass :    1.00794000000000      amu
  | Found l_max for Hartree potential  :   4
  | Found cutoff potl. onset [A], width [A], scale factor :    3.50000    1.50000    1.00000
  | Threshold for basis-dependent cutoff potential is   0.100000E-03
  | Found data for basic radial integration grid :    24 points, outermost radius =    5.000 A
  | Found multiplier for basic radial grid :   1
  | Found angular grid specification: user-specified.
  | Specified grid contains     5 separate shells.
  | Check grid settings after all constraints further below.
  | Found free-atom valence shell :  1 s   1.000
  | Found free-ion valence shell :  1 s   0.500
  | Found hydrogenic basis function :  2 s   2.100
  | Found hydrogenic basis function :  2 p   3.500
  Species H                   : Missing cutoff potential type.
  Defaulting to exp(1/x)/(1-x)^2 type cutoff potential.
  Species H : No 'logarithmic' tag. Using default grid for free atom:
  | Default logarithmic grid data [bohr] : 0.1000E-03 0.1000E+03 0.1012E+01
  Species H : On-site basis accuracy parameter (for Gram-Schmidt orthonormalisation) not specified.
  Using default value basis_acc =  0.1000000E-03.
  Species H                   : Using default innermost maximum threshold i_radial=  2 for radial functions.
  Species H                   : Default cutoff onset for free atom density etc. : 0.35000000E+01 AA.
  Species H                   : Basic radial grid will be enhanced according to radial_multiplier =   1, to contain    24 grid points.
 
  Reading configuration options for species N                   .
  | Found nuclear charge :   7.0000
  | Found atomic mass :    14.0067000000000      amu
  | Found l_max for Hartree potential  :   4
  | Found cutoff potl. onset [A], width [A], scale factor :    3.50000    1.50000    1.00000
  | Threshold for basis-dependent cutoff potential is   0.100000E-03
  | Found data for basic radial integration grid :    35 points, outermost radius =    5.000 A
  | Found multiplier for basic radial grid :   1
  | Found angular grid specification: user-specified.
  | Specified grid contains     5 separate shells.
  | Check grid settings after all constraints further below.
  | Found free-atom valence shell :  2 s   2.000
  | Found free-atom valence shell :  2 p   3.000
  | Found free-ion valence shell :  2 s   1.000
  | Found free-ion valence shell :  2 p   2.000
  | Found hydrogenic basis function :  2 p   1.800
  | Found hydrogenic basis function :  3 d   6.800
  | Found hydrogenic basis function :  3 s   5.800
  Species N                   : Missing cutoff potential type.
  Defaulting to exp(1/x)/(1-x)^2 type cutoff potential.
  Species N : No 'logarithmic' tag. Using default grid for free atom:
  | Default logarithmic grid data [bohr] : 0.1000E-03 0.1000E+03 0.1012E+01
  Species N : On-site basis accuracy parameter (for Gram-Schmidt orthonormalisation) not specified.
  Using default value basis_acc =  0.1000000E-03.
  Species N                   : Using default innermost maximum threshold i_radial=  2 for radial functions.
  Species N                   : Default cutoff onset for free atom density etc. : 0.35000000E+01 AA.
  Species N                   : Basic radial grid will be enhanced according to radial_multiplier =   1, to contain    35 grid points.
 
  Finished reading input file 'control.in'. Consistency checks are next.
 
  MPI_IN_PLACE appears to work with this MPI implementation.
  | Keeping use_mpi_in_place .true. (see manual).
  Target number of points in a grid batch is not set. Defaulting to  100
  Method for grid partitioning is not set. Defaulting to parallel hash+maxmin partitioning.
  Batch size limit is not set. Defaulting to    200
  By default, will store active basis functions for each batch.
  If in need of memory, prune_basis_once .false. can be used to disable this option.
  communication_type for Hartree potential was not specified.
  Defaulting to calc_hartree .
  Pulay mixer: Number of initial linear mixing iterations not set.
  Defaulting to    0 iterations.
  Work space size for distributed Hartree potential not set.
  Defaulting to   0.200000E+03 MB.
  Algorithm-dependent basis array size parameters:
  | n_max_pulay                         :       10
  Presetting      1001 iterations before the initial mixing cycle
  is restarted anyway using the sc_init_iter criterion / keyword.
  Presetting a factor      1.000 between actual scf density residual
  and density convergence criterion sc_accuracy_rho below which sc_init_iter
  takes no effect.
  No maximum number of relaxation steps, defaulting to     1000
  Default initial Hessian is Lindh matrix (thres = 15.00) plus  0.200000E+01 eV/A^2 times unity.
  No maximum energy tolerance for TRM/BFGS moves, defaulting to   0.200000E-03
  No harmonic length scale. Defaulting to   0.250000E-01 A.
  No trust radius initializer. Defaulting to   0.200000E+00 A.
  Force calculation: scf convergence accuracy of forces not set.
  Defaulting to 'sc_accuracy_forces not_checked'.
  Handling of forces: Unphysical translation and rotation will be removed from forces.
  No accuracy limit for integral partition fn. given. Defaulting to  0.1000E-14.
  No threshold value for u(r) in integrations given. Defaulting to  0.1000E-05.
  No accuracy for occupation numbers given. Defaulting to  0.1000E-12.
  No threshold value for occupation numbers given. Defaulting to  0.0000E+00.
  No accuracy for fermi level given. Defaulting to  0.1000E-19.
  Maximum # of iterations to find E_F not set. Defaulting to  200.
  Preferred method for the eigenvalue solver ('KS_method') not specified in 'control.in'.
  Calling BLACS routine to test compilation state
  Since ScaLAPACK support is enabled, defaulting to 'elsi'.
  Will not use alltoall communication since running on < 1024 CPUs.
  Threshold for basis singularities not set.
  Default threshold for basis singularities:  0.1000E-04
  partition_type (choice of integration weights) for integrals was not specified.
  | Using a version of the partition function of Stratmann and coworkers ('stratmann_smoother').
  | At each grid point, the set of atoms used to build the partition table is smoothly restricted to
  | only those atoms whose free-atom density would be non-zero at that grid point.
  Partitioning for Hartree potential was not defined. Using partition_type for integrals.
  | Adjusted default value of keyword multip_moments_threshold to:       0.10000000E-11
  | This value may affect high angular momentum components of the Hartree potential in periodic systems.
  No q(lm)/r^(l+1) cutoff set for long-range Hartree potential.
  | Using default value of  0.100000E-09 .
  | Verify using the multipole_threshold keyword.
  Defaulting to new monopole extrapolation.
  Density update method: automatic selection selected.
  Geometry relaxation: A file "geometry.in.next_step" is written out by default after each step.
  | This file contains the geometry of the current relaxation step as well as
  | the current Hessian matrix needed to restart the relaxation algorithm.
  | If you do not want part or all of this information, use the keywords
  | "write_restart_geometry" or "hessian_to_restart_geometry" to switch the output off.
------------------------------------------------------------


------------------------------------------------------------
          Reading geometry description geometry.in.
------------------------------------------------------------
  Found relaxation constraint for atom     21: All coordinates fixed.
  Found relaxation constraint for atom     22: All coordinates fixed.
  Found relaxation constraint for atom     23: All coordinates fixed.
  Found relaxation constraint for atom     24: All coordinates fixed.
  Found relaxation constraint for atom     25: All coordinates fixed.
  Found relaxation constraint for atom     26: All coordinates fixed.
  Found relaxation constraint for atom     27: All coordinates fixed.
  Found relaxation constraint for atom     28: All coordinates fixed.
  Found relaxation constraint for atom     29: All coordinates fixed.
  Found relaxation constraint for atom     30: All coordinates fixed.
  Found relaxation constraint for atom     31: All coordinates fixed.
  Found relaxation constraint for atom     32: All coordinates fixed.
  Found relaxation constraint for atom     33: All coordinates fixed.
  Found relaxation constraint for atom     34: All coordinates fixed.
  Found relaxation constraint for atom     39: All coordinates fixed.
  Found relaxation constraint for atom     40: All coordinates fixed.
  Found relaxation constraint for atom     41: All coordinates fixed.
  Found relaxation constraint for atom     42: All coordinates fixed.
  Found relaxation constraint for atom     43: All coordinates fixed.
  Found relaxation constraint for atom     44: All coordinates fixed.
  Found relaxation constraint for atom     45: All coordinates fixed.
  Found relaxation constraint for atom     46: All coordinates fixed.
  Found relaxation constraint for atom     47: All coordinates fixed.
  Found relaxation constraint for atom     48: All coordinates fixed.
  Found relaxation constraint for atom     49: All coordinates fixed.
  Found relaxation constraint for atom     50: All coordinates fixed.
  Found relaxation constraint for atom     51: All coordinates fixed.
  Found relaxation constraint for atom     52: All coordinates fixed.
  Input structure read successfully.
  The structure contains       52 atoms,  and a total of       2903.000 electrons.

  Input geometry:
  | No unit cell requested.
  | Atomic structure:
  |       Atom                x [A]            y [A]            z [A]
  |    1: Species N             1.76763629        3.13137002       12.11292273
  |    2: Species C             1.72689823        2.91758998       13.42536286
  |    3: Species C             1.14663636        2.02679411       11.55868380
  |    4: Species C             0.74849625        1.16049022       12.56017998
  |    5: Species N             1.12087220        1.73818325       13.76131614
  |    6: Species H             2.12434896        3.59576270       14.17634542
  |    7: Species H             0.23493538        0.20477099       12.52113603
  |    8: Species C             1.05079470        1.91873141       10.06685197
  |    9: Species H             0.54058552        2.81911346        9.67801173
  |   10: Species H             0.45052245        1.04982807        9.75930125
  |   11: Species C             2.45676099        1.85664877        9.45994348
  |   12: Species H             3.11643518        2.50359530       10.05860463
  |   13: Species H             2.85287408        0.83234438        9.48597500
  |   14: Species N             2.47492403        2.32248042        8.03950208
  |   15: Species H             2.15221053        3.29594759        8.01695266
  |   16: Species H             3.44081411        2.33961883        7.69833985
  |   17: Species Au            1.36755053        1.28493676        6.42297189
  |   18: Species Au           -0.66628603        0.52449712        4.83420234
  |   19: Species Au            1.35092474        2.48709439        3.94901846
  |   20: Species Au            2.12557501       -0.34855427        4.39337496
  |   21: Species Au           -2.67492638       -0.29734032        3.06399630
  |   22: Species Au           -0.70089348        1.64576301        2.26187317
  |   23: Species Au            1.27313939        3.58886633        1.45975005
  |   24: Species Au            0.06392903       -1.10566322        2.66257015
  |   25: Species Au            2.03796192        0.83744011        1.86044702
  |   26: Species Au            2.80278445       -1.91398613        2.26114401
  |   27: Species Au           -2.73885541        0.80832290        0.40142614
  |   28: Species Au           -0.76482252        2.75142622       -0.40069698
  |   29: Species Au           -1.97403290       -1.94310333        0.80212312
  |   30: Species Au            0.00000000        0.00000000        0.00000000
  |   31: Species Au            1.97403289        1.94310332       -0.80212312
  |   32: Species Au            0.76482253       -2.75142624        0.40069698
  |   33: Species Au            2.73885542       -0.80832291       -0.40142615
  |   34: Species Au           -1.91010386       -3.04876653        3.46469328
  |   35: Species Au            0.99896579        1.01248393       15.68792368
  |   36: Species Au            0.67150256        2.37893597       18.02408253
  |   37: Species Au           -0.79290270       -0.10969733       17.42558752
  |   38: Species Au            2.09300341       -0.23046545       17.79792008
  |   39: Species Au            0.40186182        3.65205969       20.45053008
  |   40: Species Au           -1.07601660        1.24868251       19.85428232
  |   41: Species Au           -2.55389503       -1.15469466       19.25803455
  |   42: Species Au            1.77794097        1.12587701       20.24887426
  |   43: Species Au            0.30006255       -1.27750017       19.65262649
  |   44: Species Au            3.15402014       -1.40030567       20.04721844
  |   45: Species Au           -1.37607916        2.52618268       22.42212453
  |   46: Species Au           -2.85395758        0.12280550       21.82587677
  |   47: Species Au            1.47787843        2.40337717       22.81671648
  |   48: Species Au           -0.00000000        0.00000000       22.22046872
  |   49: Species Au           -1.47787842       -2.40337718       21.62422095
  |   50: Species Au            2.85395758       -0.12280551       22.61506066
  |   51: Species Au            1.37607916       -2.52618268       22.01881289
  |   52: Species Au            3.25581940        3.52925419       20.84512203
  |

  | The smallest distance between any two atoms is         1.02451405 AA.
  |
  | The first atom of this pair is atom number                     14 .
  | The second atom of this pair is atom number                    16 .

  Number of empty states per atom not set in control.in - providing a guess from actual geometry.
  | Total number of empty states used during s.c.f. cycle:      360
  If you use a very high smearing, use empty_states (per atom!) in control.in to increase this value.

  Structure-dependent array size parameters: 
  | Maximum number of distinct radial functions  :       35
  | Maximum number of basis functions            :     2888
  | Number of Kohn-Sham states (occupied + empty):     1812
------------------------------------------------------------

------------------------------------------------------------
          Preparing all fixed parts of the calculation.
------------------------------------------------------------
  Determining machine precision:
    2.225073858507201E-308
  Setting up grids for atomic and cluster calculations.

  Creating wave function, potential, and density for free atoms.

  Species: Au

  List of occupied orbitals and eigenvalues:
    n    l              occ      energy [Ha]    energy [eV]
    1    0           2.0000     -3256.431199    -88612.0015
    2    0           2.0000      -533.654865    -14521.4877
    3    0           2.0000      -124.232088     -3380.5271
    4    0           2.0000       -26.843821      -730.4575
    5    0           2.0000        -3.974251      -108.1449
    6    0           1.0000        -0.207180        -5.6377
    2    1           6.0000      -460.384091    -12527.6885
    3    1           6.0000      -103.448928     -2814.9886
    4    1           6.0000       -20.075789      -546.2900
    5    1           6.0000        -2.189737       -59.5858
    3    2          10.0000       -81.364825     -2214.0495
    4    2          10.0000       -11.975168      -325.8609
    5    2          10.0000        -0.249072        -6.7776
    4    3          14.0000        -2.985533       -81.2405


  Species: C

  List of occupied orbitals and eigenvalues:
    n    l              occ      energy [Ha]    energy [eV]
    1    0           2.0000       -10.046810      -273.3876
    2    0           2.0000        -0.503128       -13.6908
    2    1           2.0000        -0.191849        -5.2205


  Species: H

  List of occupied orbitals and eigenvalues:
    n    l              occ      energy [Ha]    energy [eV]
    1    0           1.0000        -0.237593        -6.4652


  Species: N

  List of occupied orbitals and eigenvalues:
    n    l              occ      energy [Ha]    energy [eV]
    1    0           2.0000       -14.143973      -384.8771
    2    0           2.0000        -0.682008       -18.5584
    2    1           3.0000        -0.259605        -7.0642

  Creating fixed part of basis set: Ionic, confined, hydrogenic.
 
  Au                   ion:

  List of free ionic orbitals and eigenvalues:
    n    l      energy [Ha]    energy [eV]
    1    0     -3257.305345    -88635.7882
    2    0      -534.468969    -14543.6406
    3    0      -125.037161     -3402.4343
    4    0       -27.646714      -752.3054
    5    0        -4.773414      -129.8912
    2    1      -461.196653    -12549.7994
    3    1      -104.253556     -2836.8836
    4    1       -20.878488      -568.1326
    5    1        -2.984283       -81.2065
    3    2       -82.168946     -2235.9308
    4    2       -12.777596      -347.6961
    5    2        -1.004504       -27.3340
    4    3        -3.787521      -103.0637


  List of ionic basis orbitals and eigenvalues:
    n    l      energy [Ha]    energy [eV]    outer radius [A]
    6    1        -0.535414       -14.5694       4.560053
    6    0        -0.835538       -22.7361       4.504645

 
  Au                   hydrogenic:
 
  List of hydrogenic basis orbitals: 
    n    l      effective z      eigenvalue [eV]  inner max. [A]     outer max. [A]     outer radius [A]   
    4    3         7.400000       -46.5648           1.145580           1.145580           4.504645
    5    4        10.000000       -54.4214           1.326589           1.326589           4.504645
    6    5        12.800000       -61.9181           1.480879           1.480879           4.560053
    3    2         2.500000        -9.0892           1.822958           1.822958           4.616141
 
 
  C                    hydrogenic:
 
  List of hydrogenic basis orbitals: 
    n    l      effective z      eigenvalue [eV]  inner max. [A]     outer max. [A]     outer radius [A]   
    2    1         1.700000        -9.7616           1.230570           1.230570           4.607917
    3    2         6.000000       -54.4224           0.792453           0.792453           3.883070
    2    0         4.900000       -81.6679           0.082559           0.562749           3.078220
 
 
  H                    hydrogenic:
 
  List of hydrogenic basis orbitals: 
    n    l      effective z      eigenvalue [eV]  inner max. [A]     outer max. [A]     outer radius [A]   
    2    0         2.100000       -14.9728           0.193243           1.317208           4.583499
    2    1         3.500000       -41.6669           0.602369           0.602369           3.723403
 
 
  N                    hydrogenic:
 
  List of hydrogenic basis orbitals: 
    n    l      effective z      eigenvalue [eV]  inner max. [A]     outer max. [A]     outer radius [A]   
    2    1         1.800000       -10.9749           1.177451           1.177451           4.573712
    3    2         6.800000       -69.9026           0.704619           0.704619           3.538137
    3    0         5.800000       -50.8545           0.067388           1.191934           4.250239
 

  Adding cutoff potential to free-atom effective potential.
  Creating atomic-like basis functions for current effective potential.

  Species Au                  :

  List of atomic basis orbitals and eigenvalues:
    n    l      energy [Ha]    energy [eV]    outer radius [A]
    1    0     -3256.431199    -88612.0015       0.120816
    2    0      -533.654865    -14521.4877       0.313506
    3    0      -124.232088     -3380.5271       0.652830
    4    0       -26.843821      -730.4575       1.359424
    5    0        -3.974251      -108.1449       3.318406
    6    0        -0.207180        -5.6377       4.560053
    2    1      -460.384091    -12527.6885       0.329217
    3    1      -103.448928     -2814.9886       0.702515
    4    1       -20.075789      -546.2900       1.536198
    5    1        -2.189737       -59.5858       4.035315
    3    2       -81.364825     -2214.0495       0.755981
    4    2       -11.975168      -325.8609       1.868078
    5    2        -0.249072        -6.7776       4.504645
    4    3        -2.985533       -81.2405       3.198908


  Species C                   :

  List of atomic basis orbitals and eigenvalues:
    n    l      energy [Ha]    energy [eV]    outer radius [A]
    1    0       -10.046810      -273.3876       1.934409
    2    0        -0.503128       -13.6908       4.496620
    2    1        -0.191849        -5.2205       4.551928


  Species H                   :

  List of atomic basis orbitals and eigenvalues:
    n    l      energy [Ha]    energy [eV]    outer radius [A]
    1    0        -0.237593        -6.4652       4.527807


  Species N                   :

  List of atomic basis orbitals and eigenvalues:
    n    l      energy [Ha]    energy [eV]    outer radius [A]
    1    0       -14.143973      -384.8771       1.637919
    2    0        -0.682008       -18.5584       4.463241
    2    1        -0.259605        -7.0642       4.518138

  Assembling full basis from fixed parts.
  | Species Au :   atomic orbital   1 s accepted.
  | Species Au :   atomic orbital   2 s accepted.
  | Species Au :   atomic orbital   3 s accepted.
  | Species Au :   atomic orbital   4 s accepted.
  | Species Au :   atomic orbital   5 s accepted.
  | Species Au :    ionic orbital   6 s accepted.
  | Species Au :   atomic orbital   6 s accepted.
  | Species Au :   atomic orbital   2 p accepted.
  | Species Au :   atomic orbital   3 p accepted.
  | Species Au :   atomic orbital   4 p accepted.
  | Species Au :   atomic orbital   5 p accepted.
  | Species Au :    ionic orbital   6 p accepted.
  | Species Au :   atomic orbital   3 d accepted.
  | Species Au :   atomic orbital   4 d accepted.
  | Species Au :   atomic orbital   5 d accepted.
  | Species Au :    hydro orbital   3 d accepted.
  | Species Au :   atomic orbital   4 f accepted.
  | Species Au :    hydro orbital   4 f accepted.
  | Species Au :    hydro orbital   5 g accepted.
  | Species Au :    hydro orbital   6 h accepted.
  | Species C :   atomic orbital   1 s accepted.
  | Species C :    hydro orbital   2 s accepted.
  | Species C :   atomic orbital   2 s accepted.
  | Species C :   atomic orbital   2 p accepted.
  | Species C :    hydro orbital   2 p accepted.
  | Species C :    hydro orbital   3 d accepted.
  | Species H :   atomic orbital   1 s accepted.
  | Species H :    hydro orbital   2 s accepted.
  | Species H :    hydro orbital   2 p accepted.
  | Species N :   atomic orbital   1 s accepted.
  | Species N :    hydro orbital   3 s accepted.
  | Species N :   atomic orbital   2 s accepted.
  | Species N :   atomic orbital   2 p accepted.
  | Species N :    hydro orbital   2 p accepted.
  | Species N :    hydro orbital   3 d accepted.
 
  Basis size parameters after reduction:
  | Total number of radial functions:       35
  | Total number of basis functions :     2888
 
  Per-task memory consumption for arrays in subroutine allocate_ext:
  |          13.400904MB.
  Testing on-site integration grid accuracy.
  |  Species  Function  <phi|h_atom|phi> (log., in eV)  <phi|h_atom|phi> (rad., in eV)
           1        1             -88612.0014632775             -88611.6712034180 ***
           1        2             -14521.4877182964             -14521.4813999840
           1        3              -3380.5271184873              -3380.5267747403
           1        4               -730.4575387750               -730.4575126103
           1        5               -108.1448599487               -108.1448564257
           1        6                 -5.0942970264                 -5.0944290505
           1        7                  6.1115134725                  6.0788143786 ***
           1        8             -12527.6885190594             -12527.6885173588
           1        9              -2814.9885638658              -2814.9885482953
           1       10               -546.2900141357               -546.2900083742
           1       11                -59.5857773529                -59.5857755927
           1       12                  0.8801786309                  0.8779179090
           1       13              -2214.0495316492              -2214.0495265682
           1       14               -325.8609015357               -325.8608990336
           1       15                 -6.7779523923                 -6.7780549541
           1       16                  6.8774732691                  6.8534371069
           1       17                -81.2404736787                -81.2404731538
           1       18                 21.6950885255                 21.6950713539
           1       19                 37.5256805321                 37.5255763704
           1       20                 50.1803128763                 50.1800983087
           2       21               -273.3876219248               -273.3875919908
           2       22                -10.7204647119                -10.7200987605
           2       23                 17.5782951162                 17.5752355731
           2       24                 -5.2222267983                 -5.2237454471
           2       25                  8.6866956284                  8.6634852736
           2       26                 27.4984676161                 27.4985577266
           3       27                 -6.4664147733                 -6.4652229287
           3       28                 13.7099062243                 13.7158503352
           3       29                 25.2661739479                 25.2663166526
           4       30               -384.8770852117               -384.8770238677
           4       31                 12.5754985569                 12.5755902267
           4       32                -15.7673946342                -15.7673131151
           4       33                 -7.0647024646                 -7.0651952863
           4       34                  8.8117910309                  8.7928686443
           4       35                 35.9641313272                 35.9643080891
 * Note: Onsite integrals marked "***" above are less accurate than
 * onsite_accuracy_threshold =    0.03000 eV. Usually, this is harmless.
 * However, one integral did have a negative value. This integral could be important.
 * When in doubt, tighten the "radial" and/or "radial_multiplier" flags to check.

  Preparing densities etc. for the partition functions (integrals / Hartree potential).

  Preparations completed.
  max(cpu_time)          :      0.486 s.
  Wall clock time (cpu1) :      0.485 s.
------------------------------------------------------------

------------------------------------------------------------
          Begin self-consistency loop: Initialization.

          Date     :  20221011, Time     :  154219.363
------------------------------------------------------------

  Initializing index lists of integration centers etc. from given atomic structure:
  | Number of centers in hartree potential         :        52
  | Number of centers in hartree multipole         :        52
  | Number of centers in electron density summation:        52
  | Number of centers in basis integrals           :        52
  | Number of centers in integrals                 :        52
  | Number of centers in hamiltonian               :        52
  Initializing relaxation algorithms.
  * Using 16 tasks for Scalapack Eigenvalue solver.
  Detailed listing of tasks and assigned k-points:
  (for non-periodic systems, the "k-point" denotes an internal label only)
   Task     0 k-point     1 on scc-pg6
   Task     1 k-point     1 on scc-pg6
   Task     2 k-point     1 on scc-pg6
   Task     3 k-point     1 on scc-pg6
   Task     4 k-point     1 on scc-pg6
   Task     5 k-point     1 on scc-pg6
   Task     6 k-point     1 on scc-pg6
   Task     7 k-point     1 on scc-pg6
   Task     8 k-point     1 on scc-pg6
   Task     9 k-point     1 on scc-pg6
   Task    10 k-point     1 on scc-pg6
   Task    11 k-point     1 on scc-pg6
   Task    12 k-point     1 on scc-pg6
   Task    13 k-point     1 on scc-pg6
   Task    14 k-point     1 on scc-pg6
   Task    15 k-point     1 on scc-pg6
  Tasks:    16 split into      4 X      4 BLACS grid
  Calculating block size based on n_basis =         2888  max_nprow =            4  max_npcol =            4
  ScaLAPACK block size set to:           16
  Allocating        4.240 MB for ovlp
  Allocating        4.240 MB for ham
  Allocating        4.240 MB for eigenvec
  Required Scalapack workspace - INTEGER:            1  REAL:             1
  Partitioning the integration grid into batches with parallel hashing+maxmin method.
  | Number of batches:     3637
  | Maximal batch size:     200
  | Minimal batch size:      50
  | Average batch size:     113.836
  | Standard deviation of batch sizes:      31.024

  Integration load balanced across    16 MPI tasks.
  Work distribution over tasks is as follows:
  Task     0 has      25839 integration points.
  Task     1 has      25967 integration points.
  Task     2 has      25852 integration points.
  Task     3 has      25884 integration points.
  Task     4 has      25898 integration points.
  Task     5 has      25862 integration points.
  Task     6 has      25877 integration points.
  Task     7 has      25954 integration points.
  Task     8 has      25866 integration points.
  Task     9 has      25849 integration points.
  Task    10 has      25877 integration points.
  Task    11 has      25865 integration points.
  Task    12 has      25885 integration points.
  Task    13 has      25843 integration points.
  Task    14 has      25843 integration points.
  Task    15 has      25861 integration points.
  Initializing partition tables, free-atom densities, potentials, etc. across the integration grid (initialize_grid_storage).
  | initialize_grid_storage: Actual outermost partition radius vs. multipole_radius_free
  | (-- VB: in principle, multipole_radius_free should be larger, hence this output)
  | Species        1: Confinement radius =              4.999999999999999 AA, multipole_radius_free =              5.028561921230412 AA.
  | Species        1: outer_partition_radius set to              5.028561921230412 AA .
  | Species        2: Confinement radius =              4.999999999999999 AA, multipole_radius_free =              5.019602836301480 AA.
  | Species        2: outer_partition_radius set to              5.019602836301480 AA .
  | Species        3: Confinement radius =              4.999999999999999 AA, multipole_radius_free =              5.054417573612229 AA.
  | Species        3: outer_partition_radius set to              5.054417573612229 AA .
  | Species        4: Confinement radius =              4.999999999999999 AA, multipole_radius_free =              5.043624274424571 AA.
  | Species        4: outer_partition_radius set to              5.043624274424571 AA .
  | Original list of interatomic distances with          52 x         52 entries is created.
  | Net number of integration points:   414022
  | of which are non-zero points    :   379516
  Renormalizing the initial density to the exact electron count on the 3D integration grid.
  | Initial density: Formal number of electrons (from input files) :    2903.0000000000
  | Integrated number of electrons on 3D grid     :    2902.9997673621
  | Charge integration error                      :      -0.0002326379
  | Normalization factor for density and gradient :       1.0000000801
  Obtaining max. number of non-zero basis functions in each batch (get_n_compute_maxes).
  | Maximal number of non-zero basis functions:      928 in task     0
  | Maximal number of non-zero basis functions:      950 in task     1
  | Maximal number of non-zero basis functions:      934 in task     2
  | Maximal number of non-zero basis functions:      974 in task     3
  | Maximal number of non-zero basis functions:      925 in task     4
  | Maximal number of non-zero basis functions:      935 in task     5
  | Maximal number of non-zero basis functions:      966 in task     6
  | Maximal number of non-zero basis functions:      967 in task     7
  | Maximal number of non-zero basis functions:      942 in task     8
  | Maximal number of non-zero basis functions:      928 in task     9
  | Maximal number of non-zero basis functions:      972 in task    10
  | Maximal number of non-zero basis functions:      951 in task    11
  | Maximal number of non-zero basis functions:      948 in task    12
  | Maximal number of non-zero basis functions:      946 in task    13
  | Maximal number of non-zero basis functions:      951 in task    14
  | Maximal number of non-zero basis functions:      948 in task    15
  Selecting the method for density update.
  Density matrix based charge density update selected.
  Scalapack and density-matrix based density update requested:
  Switching to packed matrix format "index" by default.
  Hamiltonian matrix size:
  | Size of matrix non-packed:               4171716
  | Size of matrix packed:         1673855
  Allocating       41.864 MB for KS_eigenvector
  Integrating Hamiltonian matrix: batch-based integration.
  Time summed over all CPUs for integration: real work       21.641 s, elapsed       22.213 s
  Integrating overlap matrix.
  Time summed over all CPUs for integration: real work       12.924 s, elapsed       13.228 s
  Decreasing sparse matrix size:
   Tolerance:  9.999999824516700E-014
   Hamiltonian matrix
  | Array has  1584358 nonzero elements out of  1673855 elements
  | Sparsity factor is 0.053
   Overlap matrix
  | Array has  1536404 nonzero elements out of  1673855 elements
  | Sparsity factor is 0.082
  New size of hamiltonian matrix:     1586474
  Deallocating overlap matrix.

  Updating Kohn-Sham eigenvalues and eigenvectors using ELSI and the ELPA eigensolver.
  ELPA settings:
  | ELPA solver          2
  | Time full => band           :     0.268 s
  | Time band => tridiagonal    :     0.098 s
  | Time solve tridiagonal      :     0.131 s
  Overlap matrix is nonsingular
  | Lowest eigenvalue of overlap  :  0.18E-02
  | Highest eigenvalue of overlap :  0.65E+01
  Finished singularity check of overlap matrix
  | Time :     0.502 s
  Finished Cholesky decomposition
  | Time :     0.168 s
  Finished transformation to standard eigenproblem
  | Time :     0.189 s
  Starting ELPA eigensolver
  | Time full => band           :     0.266 s
  | Time band => tridiagonal    :     0.098 s
  | Time solve tridiagonal      :     0.104 s
  | Time ev tridiagonal => band :     0.254 s
  | Time ev band => full        :     0.172 s
  Finished solving standard eigenproblem
  | Time :     0.894 s
  Finished back-transformation of eigenvectors
  | Time :     0.099 s

  Obtaining occupation numbers and chemical potential using ELSI.
  | Chemical potential (Fermi level):    -4.73647547eV
  Writing Kohn-Sham eigenvalues.

  State    Occupation    Eigenvalue [Ha]    Eigenvalue [eV]
      1       2.00000       -3256.415527       -88611.57499
      2       2.00000       -3256.415508       -88611.57448
      3       2.00000       -3256.415399       -88611.57152
      4       2.00000       -3256.415317       -88611.56927
      5       2.00000       -3256.415259       -88611.56769
      6       2.00000       -3256.415195       -88611.56595
      7       2.00000       -3256.415131       -88611.56421
      8       2.00000       -3256.414749       -88611.55384
      9       2.00000       -3256.414749       -88611.55384
     10       2.00000       -3256.414718       -88611.55299
     11       2.00000       -3256.414565       -88611.54883
     12       2.00000       -3256.414540       -88611.54814
     13       2.00000       -3256.414517       -88611.54752
     14       2.00000       -3256.414440       -88611.54542
     15       2.00000       -3256.414435       -88611.54529
     16       2.00000       -3256.414292       -88611.54140
     17       2.00000       -3256.413809       -88611.52825
     18       2.00000       -3256.413679       -88611.52471
     19       2.00000       -3256.413500       -88611.51983
     20       2.00000       -3256.413500       -88611.51983
     21       2.00000       -3256.413488       -88611.51952
     22       2.00000       -3256.413464       -88611.51887
     23       2.00000       -3256.413409       -88611.51737
     24       2.00000       -3256.413408       -88611.51733
     25       2.00000       -3256.413083       -88611.50849
     26       2.00000       -3256.413083       -88611.50849
     27       2.00000       -3256.413083       -88611.50849
     28       2.00000       -3256.413083       -88611.50849
     29       2.00000       -3256.413083       -88611.50849
     30       2.00000       -3256.413083       -88611.50849
     31       2.00000       -3256.413083       -88611.50849
     32       2.00000       -3256.413083       -88611.50849
     33       2.00000       -3256.413083       -88611.50849
     34       2.00000       -3256.413083       -88611.50849
     35       2.00000       -3256.412250       -88611.48582
     36       2.00000       -3256.412250       -88611.48582
     37       2.00000        -533.656819       -14521.54089
     38       2.00000        -533.656800       -14521.54038
     39       2.00000        -533.656689       -14521.53734
     40       2.00000        -533.656608       -14521.53515
     41       2.00000        -533.656550       -14521.53356
     42       2.00000        -533.656486       -14521.53182
     43       2.00000        -533.656421       -14521.53007
     44       2.00000        -533.656039       -14521.51967
     45       2.00000        -533.656039       -14521.51967
     46       2.00000        -533.656005       -14521.51875
     47       2.00000        -533.655853       -14521.51460
     48       2.00000        -533.655827       -14521.51391
     49       2.00000        -533.655805       -14521.51329
     50       2.00000        -533.655727       -14521.51118
     51       2.00000        -533.655722       -14521.51105
     52       2.00000        -533.655579       -14521.50715
     53       2.00000        -533.655094       -14521.49396
     54       2.00000        -533.654964       -14521.49041
     55       2.00000        -533.654784       -14521.48552
     56       2.00000        -533.654784       -14521.48552
     57       2.00000        -533.654772       -14521.48519
     58       2.00000        -533.654748       -14521.48454
     59       2.00000        -533.654693       -14521.48304
     60       2.00000        -533.654691       -14521.48300
     61       2.00000        -533.654366       -14521.47414
     62       2.00000        -533.654366       -14521.47414
     63       2.00000        -533.654366       -14521.47414
     64       2.00000        -533.654366       -14521.47414
     65       2.00000        -533.654366       -14521.47414
     66       2.00000        -533.654366       -14521.47414
     67       2.00000        -533.654366       -14521.47414
     68       2.00000        -533.654366       -14521.47414
     69       2.00000        -533.654366       -14521.47414
     70       2.00000        -533.654366       -14521.47414
     71       2.00000        -533.653529       -14521.45137
     72       2.00000        -533.653529       -14521.45137
     73       2.00000        -460.388607       -12527.81141
     74       2.00000        -460.388607       -12527.81139
     75       2.00000        -460.388604       -12527.81131
     76       2.00000        -460.388589       -12527.81091
     77       2.00000        -460.388588       -12527.81088
     78       2.00000        -460.388585       -12527.81080
     79       2.00000        -460.388485       -12527.80808
     80       2.00000        -460.388472       -12527.80772
     81       2.00000        -460.388471       -12527.80771
     82       2.00000        -460.388397       -12527.80568
     83       2.00000        -460.388396       -12527.80566
     84       2.00000        -460.388392       -12527.80555
     85       2.00000        -460.388338       -12527.80409
     86       2.00000        -460.388338       -12527.80407
     87       2.00000        -460.388334       -12527.80397
     88       2.00000        -460.388274       -12527.80235
     89       2.00000        -460.388274       -12527.80233
     90       2.00000        -460.388270       -12527.80223
     91       2.00000        -460.388210       -12527.80060
     92       2.00000        -460.388209       -12527.80059
     93       2.00000        -460.388206       -12527.80049
     94       2.00000        -460.387827       -12527.79019
     95       2.00000        -460.387827       -12527.79019
     96       2.00000        -460.387827       -12527.79019
     97       2.00000        -460.387827       -12527.79019
     98       2.00000        -460.387824       -12527.79010
     99       2.00000        -460.387824       -12527.79010
    100       2.00000        -460.387799       -12527.78943
    101       2.00000        -460.387790       -12527.78918
    102       2.00000        -460.387790       -12527.78916
    103       2.00000        -460.387644       -12527.78520
    104       2.00000        -460.387640       -12527.78508
    105       2.00000        -460.387637       -12527.78502
    106       2.00000        -460.387619       -12527.78452
    107       2.00000        -460.387614       -12527.78438
    108       2.00000        -460.387612       -12527.78432
    109       2.00000        -460.387596       -12527.78390
    110       2.00000        -460.387591       -12527.78377
    111       2.00000        -460.387589       -12527.78371
    112       2.00000        -460.387519       -12527.78180
    113       2.00000        -460.387514       -12527.78166
    114       2.00000        -460.387514       -12527.78166
    115       2.00000        -460.387512       -12527.78160
    116       2.00000        -460.387509       -12527.78153
    117       2.00000        -460.387507       -12527.78147
    118       2.00000        -460.387371       -12527.77776
    119       2.00000        -460.387366       -12527.77763
    120       2.00000        -460.387364       -12527.77757
    121       2.00000        -460.386883       -12527.76450
    122       2.00000        -460.386882       -12527.76446
    123       2.00000        -460.386882       -12527.76446
    124       2.00000        -460.386752       -12527.76094
    125       2.00000        -460.386752       -12527.76092
    126       2.00000        -460.386752       -12527.76092
    127       2.00000        -460.386572       -12527.75603
    128       2.00000        -460.386572       -12527.75603
    129       2.00000        -460.386572       -12527.75603
    130       2.00000        -460.386572       -12527.75603
    131       2.00000        -460.386572       -12527.75603
    132       2.00000        -460.386572       -12527.75603
    133       2.00000        -460.386562       -12527.75576
    134       2.00000        -460.386560       -12527.75571
    135       2.00000        -460.386558       -12527.75566
    136       2.00000        -460.386538       -12527.75511
    137       2.00000        -460.386537       -12527.75507
    138       2.00000        -460.386534       -12527.75501
    139       2.00000        -460.386483       -12527.75360
    140       2.00000        -460.386481       -12527.75356
    141       2.00000        -460.386481       -12527.75356
    142       2.00000        -460.386480       -12527.75352
    143       2.00000        -460.386479       -12527.75350
    144       2.00000        -460.386478       -12527.75346
    145       2.00000        -460.386155       -12527.74468
    146       2.00000        -460.386155       -12527.74468
    147       2.00000        -460.386155       -12527.74468
    148       2.00000        -460.386155       -12527.74468
    149       2.00000        -460.386155       -12527.74468
    150       2.00000        -460.386155       -12527.74468
    151       2.00000        -460.386155       -12527.74468
    152       2.00000        -460.386155       -12527.74468
    153       2.00000        -460.386155       -12527.74468
    154       2.00000        -460.386155       -12527.74468
    155       2.00000        -460.386155       -12527.74468
    156       2.00000        -460.386155       -12527.74468
    157       2.00000        -460.386155       -12527.74468
    158       2.00000        -460.386155       -12527.74468
    159       2.00000        -460.386155       -12527.74468
    160       2.00000        -460.386155       -12527.74468
    161       2.00000        -460.386155       -12527.74468
    162       2.00000        -460.386155       -12527.74468
    163       2.00000        -460.386155       -12527.74468
    164       2.00000        -460.386155       -12527.74468
    165       2.00000        -460.386153       -12527.74462
    166       2.00000        -460.386153       -12527.74462
    167       2.00000        -460.386153       -12527.74462
    168       2.00000        -460.386153       -12527.74462
    169       2.00000        -460.386153       -12527.74462
    170       2.00000        -460.386153       -12527.74462
    171       2.00000        -460.386153       -12527.74462
    172       2.00000        -460.386153       -12527.74462
    173       2.00000        -460.386153       -12527.74462
    174       2.00000        -460.386153       -12527.74462
    175       2.00000        -460.385320       -12527.72197
    176       2.00000        -460.385320       -12527.72197
    177       2.00000        -460.385317       -12527.72188
    178       2.00000        -460.385317       -12527.72188
    179       2.00000        -460.385317       -12527.72188
    180       2.00000        -460.385317       -12527.72188
    181       2.00000        -124.236164        -3380.63802
    182       2.00000        -124.236144        -3380.63750
    183       2.00000        -124.236016        -3380.63400
    184       2.00000        -124.235946        -3380.63210
    185       2.00000        -124.235887        -3380.63049
    186       2.00000        -124.235822        -3380.62871
    187       2.00000        -124.235756        -3380.62694
    188       2.00000        -124.235367        -3380.61635
    189       2.00000        -124.235367        -3380.61635
    190       2.00000        -124.235320        -3380.61506
    191       2.00000        -124.235170        -3380.61097
    192       2.00000        -124.235144        -3380.61026
    193       2.00000        -124.235121        -3380.60964
    194       2.00000        -124.235042        -3380.60749
    195       2.00000        -124.235037        -3380.60736
    196       2.00000        -124.234891        -3380.60340
    197       2.00000        -124.234399        -3380.58999
    198       2.00000        -124.234266        -3380.58638
    199       2.00000        -124.234083        -3380.58140
    200       2.00000        -124.234083        -3380.58140
    201       2.00000        -124.234068        -3380.58099
    202       2.00000        -124.234044        -3380.58033
    203       2.00000        -124.233987        -3380.57880
    204       2.00000        -124.233986        -3380.57876
    205       2.00000        -124.233655        -3380.56975
    206       2.00000        -124.233655        -3380.56975
    207       2.00000        -124.233655        -3380.56975
    208       2.00000        -124.233655        -3380.56975
    209       2.00000        -124.233655        -3380.56975
    210       2.00000        -124.233655        -3380.56975
    211       2.00000        -124.233655        -3380.56975
    212       2.00000        -124.233655        -3380.56975
    213       2.00000        -124.233655        -3380.56975
    214       2.00000        -124.233655        -3380.56975
    215       2.00000        -124.232798        -3380.54645
    216       2.00000        -124.232798        -3380.54645
    217       2.00000        -103.453593        -2815.11551
    218       2.00000        -103.453588        -2815.11537
    219       2.00000        -103.453576        -2815.11503
    220       2.00000        -103.453567        -2815.11479
    221       2.00000        -103.453564        -2815.11470
    222       2.00000        -103.453545        -2815.11419
    223       2.00000        -103.453505        -2815.11310
    224       2.00000        -103.453399        -2815.11022
    225       2.00000        -103.453397        -2815.11015
    226       2.00000        -103.453380        -2815.10969
    227       2.00000        -103.453372        -2815.10949
    228       2.00000        -103.453340        -2815.10863
    229       2.00000        -103.453319        -2815.10805
    230       2.00000        -103.453313        -2815.10788
    231       2.00000        -103.453282        -2815.10703
    232       2.00000        -103.453253        -2815.10625
    233       2.00000        -103.453248        -2815.10612
    234       2.00000        -103.453217        -2815.10527
    235       2.00000        -103.453187        -2815.10445
    236       2.00000        -103.453183        -2815.10434
    237       2.00000        -103.453153        -2815.10351
    238       2.00000        -103.452794        -2815.09375
    239       2.00000        -103.452794        -2815.09375
    240       2.00000        -103.452794        -2815.09375
    241       2.00000        -103.452794        -2815.09375
    242       2.00000        -103.452788        -2815.09359
    243       2.00000        -103.452768        -2815.09304
    244       2.00000        -103.452768        -2815.09304
    245       2.00000        -103.452714        -2815.09157
    246       2.00000        -103.452710        -2815.09147
    247       2.00000        -103.452618        -2815.08895
    248       2.00000        -103.452596        -2815.08835
    249       2.00000        -103.452581        -2815.08797
    250       2.00000        -103.452570        -2815.08765
    251       2.00000        -103.452562        -2815.08745
    252       2.00000        -103.452553        -2815.08720
    253       2.00000        -103.452534        -2815.08668
    254       2.00000        -103.452531        -2815.08660
    255       2.00000        -103.452513        -2815.08610
    256       2.00000        -103.452493        -2815.08555
    257       2.00000        -103.452486        -2815.08537
    258       2.00000        -103.452451        -2815.08443
    259       2.00000        -103.452448        -2815.08433
    260       2.00000        -103.452433        -2815.08393
    261       2.00000        -103.452429        -2815.08383
    262       2.00000        -103.452340        -2815.08140
    263       2.00000        -103.452302        -2815.08036
    264       2.00000        -103.452284        -2815.07987
    265       2.00000        -103.451822        -2815.06731
    266       2.00000        -103.451812        -2815.06703
    267       2.00000        -103.451812        -2815.06703
    268       2.00000        -103.451687        -2815.06362
    269       2.00000        -103.451681        -2815.06346
    270       2.00000        -103.451681        -2815.06346
    271       2.00000        -103.451499        -2815.05853
    272       2.00000        -103.451499        -2815.05853
    273       2.00000        -103.451499        -2815.05853
    274       2.00000        -103.451499        -2815.05853
    275       2.00000        -103.451499        -2815.05853
    276       2.00000        -103.451499        -2815.05853
    277       2.00000        -103.451499        -2815.05852
    278       2.00000        -103.451486        -2815.05816
    279       2.00000        -103.451474        -2815.05785
    280       2.00000        -103.451469        -2815.05769
    281       2.00000        -103.451462        -2815.05751
    282       2.00000        -103.451444        -2815.05703
    283       2.00000        -103.451417        -2815.05628
    284       2.00000        -103.451415        -2815.05624
    285       2.00000        -103.451406        -2815.05599
    286       2.00000        -103.451405        -2815.05595
    287       2.00000        -103.451389        -2815.05552
    288       2.00000        -103.451387        -2815.05548
    289       2.00000        -103.451077        -2815.04703
    290       2.00000        -103.451077        -2815.04703
    291       2.00000        -103.451077        -2815.04703
    292       2.00000        -103.451077        -2815.04703
    293       2.00000        -103.451077        -2815.04703
    294       2.00000        -103.451077        -2815.04703
    295       2.00000        -103.451077        -2815.04703
    296       2.00000        -103.451077        -2815.04703
    297       2.00000        -103.451077        -2815.04703
    298       2.00000        -103.451077        -2815.04703
    299       2.00000        -103.451077        -2815.04703
    300       2.00000        -103.451077        -2815.04703
    301       2.00000        -103.451077        -2815.04703
    302       2.00000        -103.451077        -2815.04703
    303       2.00000        -103.451077        -2815.04703
    304       2.00000        -103.451077        -2815.04703
    305       2.00000        -103.451077        -2815.04703
    306       2.00000        -103.451077        -2815.04703
    307       2.00000        -103.451077        -2815.04703
    308       2.00000        -103.451077        -2815.04703
    309       2.00000        -103.451059        -2815.04655
    310       2.00000        -103.451059        -2815.04655
    311       2.00000        -103.451059        -2815.04655
    312       2.00000        -103.451059        -2815.04655
    313       2.00000        -103.451059        -2815.04655
    314       2.00000        -103.451059        -2815.04655
    315       2.00000        -103.451059        -2815.04655
    316       2.00000        -103.451059        -2815.04655
    317       2.00000        -103.451059        -2815.04655
    318       2.00000        -103.451059        -2815.04655
    319       2.00000        -103.450231        -2815.02402
    320       2.00000        -103.450231        -2815.02402
    321       2.00000        -103.450205        -2815.02331
    322       2.00000        -103.450205        -2815.02331
    323       2.00000        -103.450205        -2815.02331
    324       2.00000        -103.450205        -2815.02331
    325       2.00000         -81.369460        -2214.17566
    326       2.00000         -81.369460        -2214.17565
    327       2.00000         -81.369445        -2214.17526
    328       2.00000         -81.369442        -2214.17517
[...]
  | Time for this iteration                    :       37.886 s          37.923 s
  | Charge density & force component update    :       33.685 s          33.685 s
  | Density mixing                             :        0.014 s           0.015 s
  | Hartree multipole update                   :        0.008 s           0.008 s
  | Hartree multipole summation                :        1.399 s           1.399 s
  | Integration                                :        1.436 s           1.437 s
  | Solution of K.-S. eqns.                    :        1.318 s           1.318 s
  | Total energy evaluation                    :        0.005 s           0.021 s

  Partial memory accounting:
  | Current value for overall tracked memory usage on task 0  :          73.629 MB
  | Peak value for overall tracked memory usage on task 0     :         111.485 MB after allocating wave_pulay
  | Largest tracked array allocation on task 0 so far         :          41.864 MB  when allocating +KS_eigenvector
  Note:  These values currently only include a subset of arrays which are explicitly tracked.
  The "true" memory usage will be greater.
------------------------------------------------------------
  |------------------------------------------
  | Final ELSI Output
  |------------------------------------------
  | Number of basis functions :         2888
  | Number of electrons       :       2903.0
  | Number of spins           :            1
  | Number of k-points        :            1
  | Number of states          :         1812
  | Solver                    :         ELPA
  | Parallel mode             :   MULTI_PROC
  | Matrix format             :  BLACS_DENSE
  | Matrix sparsity           :        0.620
  |------------------------------------------
  | ELSI Project (c)  elsi-interchange.org
  |------------------------------------------

  Energy and forces in a compact form:
  | Total energy uncorrected      :         -0.192932475131386E+08 eV
  | Total energy corrected        :         -0.192932475171776E+08 eV  <-- do not rely on this value for anything but (periodic) metals
  | Electronic free energy        :         -0.192932475212167E+08 eV
  Total atomic forces (unitary forces were cleaned, then relaxation constraints were applied) [eV/Ang]:
  |   1          0.127181450762669E-02          0.338282821786708E-02         -0.636526431236333E-02
  |   2         -0.272086225923851E-02         -0.863960537849743E-02          0.376576625194314E-02
  |   3         -0.324176625876583E-02         -0.147904221639872E-02         -0.823086674412819E-03
  |   4          0.386186669351089E-02         -0.747303047810784E-03          0.260818539163656E-02
  |   5          0.323912699194779E-02          0.370285652902116E-02         -0.670767090281132E-02
  |   6          0.846643864402599E-03         -0.130666994356387E-02         -0.455630255933927E-04
  |   7          0.232143271804831E-02         -0.168219232655765E-02         -0.993181048564407E-03
  |   8          0.100317635386819E-03         -0.134289367976456E-02          0.917673127664829E-03
  |   9         -0.123839042378767E-02          0.627479851521223E-03         -0.203880430148132E-03
  |  10         -0.187092820181226E-02          0.355496880906873E-03         -0.198158230334551E-02
  |  11         -0.207494522756529E-02          0.441576007197296E-03         -0.434560532376794E-02
  |  12         -0.231686839529376E-02          0.242098010611713E-03         -0.124634634729630E-02
  |  13         -0.116831691361884E-02         -0.287614991045470E-03         -0.589026658089367E-03
  |  14          0.808078502664877E-03          0.445278458139616E-03          0.358653316397297E-02
  |  15         -0.157929506179466E-02         -0.171853823360573E-02         -0.217678269617081E-02
  |  16         -0.326611950277126E-02         -0.244162944841281E-02         -0.279064168105556E-02
  |  17         -0.149312339005059E-03          0.624042698802204E-03         -0.115795176647053E-02
  |  18         -0.479978878336070E-04          0.229661868131306E-03         -0.120957384276806E-02
  |  19          0.271120770143774E-04         -0.337759147229557E-02          0.335955889881655E-03
  |  20         -0.196295250282053E-02          0.235098417234024E-02         -0.104879043183571E-02
  |  21          0.000000000000000E+00          0.000000000000000E+00          0.000000000000000E+00
  |  22          0.000000000000000E+00          0.000000000000000E+00          0.000000000000000E+00
  |  23          0.000000000000000E+00          0.000000000000000E+00          0.000000000000000E+00
  |  24          0.000000000000000E+00          0.000000000000000E+00          0.000000000000000E+00
  |  25          0.000000000000000E+00          0.000000000000000E+00          0.000000000000000E+00
  |  26          0.000000000000000E+00          0.000000000000000E+00          0.000000000000000E+00
  |  27          0.000000000000000E+00          0.000000000000000E+00          0.000000000000000E+00
  |  28          0.000000000000000E+00          0.000000000000000E+00          0.000000000000000E+00
  |  29          0.000000000000000E+00          0.000000000000000E+00          0.000000000000000E+00
  |  30          0.000000000000000E+00          0.000000000000000E+00          0.000000000000000E+00
  |  31          0.000000000000000E+00          0.000000000000000E+00          0.000000000000000E+00
  |  32          0.000000000000000E+00          0.000000000000000E+00          0.000000000000000E+00
  |  33          0.000000000000000E+00          0.000000000000000E+00          0.000000000000000E+00
  |  34          0.000000000000000E+00          0.000000000000000E+00          0.000000000000000E+00
  |  35         -0.108771642488652E-02         -0.194905426541224E-02          0.332284337503769E-02
  |  36         -0.216419145033548E-03          0.131725722560088E-02          0.251550085925520E-02
  |  37          0.496335577185411E-02         -0.657208923329747E-03         -0.208623813239246E-02
  |  38         -0.195132313436397E-02         -0.250893125256116E-02         -0.635955486673918E-03
  |  39          0.000000000000000E+00          0.000000000000000E+00          0.000000000000000E+00
  |  40          0.000000000000000E+00          0.000000000000000E+00          0.000000000000000E+00
  |  41          0.000000000000000E+00          0.000000000000000E+00          0.000000000000000E+00
  |  42          0.000000000000000E+00          0.000000000000000E+00          0.000000000000000E+00
  |  43          0.000000000000000E+00          0.000000000000000E+00          0.000000000000000E+00
  |  44          0.000000000000000E+00          0.000000000000000E+00          0.000000000000000E+00
  |  45          0.000000000000000E+00          0.000000000000000E+00          0.000000000000000E+00
  |  46          0.000000000000000E+00          0.000000000000000E+00          0.000000000000000E+00
  |  47          0.000000000000000E+00          0.000000000000000E+00          0.000000000000000E+00
  |  48          0.000000000000000E+00          0.000000000000000E+00          0.000000000000000E+00
  |  49          0.000000000000000E+00          0.000000000000000E+00          0.000000000000000E+00
  |  50          0.000000000000000E+00          0.000000000000000E+00          0.000000000000000E+00
  |  51          0.000000000000000E+00          0.000000000000000E+00          0.000000000000000E+00
  |  52          0.000000000000000E+00          0.000000000000000E+00          0.000000000000000E+00

  ------------------------------------ 
  Start decomposition of the XC Energy 
  ------------------------------------ 
  X and C from original XC functional choice 
  Hartree-Fock Energy :          0.000000000 Ha              0.000000000 eV
  X Energy            :     -13118.851372528 Ha        -356982.108896205 eV
  C Energy            :       -176.416453649 Ha          -4800.535952382 eV
  Total XC Energy     :     -13295.267826177 Ha        -361782.644848588 eV
  ------------------------------------ 
  LDA X and C from self-consistent density 
  X Energy LDA        :     -12589.857074549 Ha        -342587.441655590 eV
  C Energy LDA        :       -301.714996861 Ha          -8210.082789014 eV
  ------------------------------------ 
  End decomposition of the XC Energy 
  ------------------------------------ 

------------------------------------------------------------
  Relaxation / MD: End force evaluation.       :  max(cpu_time)    wall_clock(cpu1)
  | Time for this force evaluation             :      146.280 s         146.391 s

------------------------------------------------------------
  Geometry optimization: Attempting to predict improved coordinates.

  Net remaining forces (excluding translations, rotations) in present geometry:
  Maximum force component is  0.863961E-02 eV/A.
  Present geometry is converged.

------------------------------------------------------------
  Final atomic structure:
                         x [A]             y [A]             z [A]
            atom         1.76226908        3.12873985       12.11109033  N
            atom         1.73158075        2.91485627       13.42070466  C
            atom         1.14229499        2.02403585       11.55561536  C
            atom         0.75056751        1.15320143       12.55636580  C
            atom         1.13146666        1.72824677       13.75614908  N
            atom         2.12869352        3.59388609       14.17074122  H
            atom         0.24331850        0.19429353       12.51636571  H
            atom         1.04517181        1.91918227       10.06355143  C
            atom         0.53395481        2.82072193        9.68017610  H
            atom         0.44396025        1.05045672        9.75756715  H
            atom         2.45034977        1.85566730        9.45419556  C
            atom         3.11323703        2.50469430       10.04685643  H
            atom         2.84760600        0.83217666        9.48123732  H
            atom         2.46685060        2.31980603        8.03174990  N
            atom         2.14965349        3.29535971        8.00905154  H
            atom         3.43374311        2.33312915        7.69215075  H
            atom         1.34942965        1.28069750        6.43212479  Au
            atom        -0.67108724        0.51356431        4.83769975  Au
            atom         1.32557416        2.48488790        3.95241501  Au
            atom         2.10546274       -0.36292508        4.40132324  Au
            atom        -2.67492638       -0.29734032        3.06399630  Au
            atom        -0.70089348        1.64576301        2.26187317  Au
            atom         1.27313939        3.58886633        1.45975005  Au
            atom         0.06392903       -1.10566322        2.66257015  Au
            atom         2.03796192        0.83744011        1.86044702  Au
            atom         2.80278445       -1.91398613        2.26114401  Au
            atom        -2.73885541        0.80832290        0.40142614  Au
            atom        -0.76482252        2.75142622       -0.40069698  Au
            atom        -1.97403290       -1.94310333        0.80212312  Au
            atom         0.00000000        0.00000000        0.00000000  Au
            atom         1.97403289        1.94310332       -0.80212312  Au
            atom         0.76482253       -2.75142624        0.40069698  Au
            atom         2.73885542       -0.80832291       -0.40142615  Au
            atom        -1.91010386       -3.04876653        3.46469328  Au
            atom         1.00310551        1.01193233       15.67794526  Au
            atom         0.66780124        2.37147587       18.02206342  Au
            atom        -0.79852003       -0.08714895       17.42786522  Au
            atom         2.10409663       -0.20470897       17.80298769  Au
            atom         0.40186182        3.65205969       20.45053008  Au
            atom        -1.07601660        1.24868251       19.85428232  Au
            atom        -2.55389503       -1.15469466       19.25803455  Au
            atom         1.77794097        1.12587701       20.24887426  Au
            atom         0.30006255       -1.27750017       19.65262649  Au
            atom         3.15402014       -1.40030567       20.04721844  Au
            atom        -1.37607916        2.52618268       22.42212453  Au
            atom        -2.85395758        0.12280550       21.82587677  Au
            atom         1.47787843        2.40337717       22.81671648  Au
            atom        -0.00000000        0.00000000       22.22046872  Au
            atom        -1.47787842       -2.40337718       21.62422095  Au
            atom         2.85395758       -0.12280551       22.61506066  Au
            atom         1.37607916       -2.52618268       22.01881289  Au
            atom         3.25581940        3.52925419       20.84512203  Au
------------------------------------------------------------

------------------------------------------------------------------------------
  Final output of selected total energy values:

  The following output summarizes some interesting total energy values
  at the end of a run (AFTER all relaxation, molecular dynamics, etc.).

  | Total energy of the DFT / Hartree-Fock s.c.f. calculation      :      -19293247.513138577 eV
  | Final zero-broadening corrected energy (caution - metals only) :      -19293247.517177626 eV
  | For reference only, the value of 1 Hartree used in FHI-aims is :             27.211384500 eV

  Before relying on these values, please be sure to understand exactly which
  total energy value is referred to by a given number. Different objects may
  all carry the same name 'total energy'. Definitions:

  Total energy of the DFT / Hartree-Fock s.c.f. calculation:
  | Note that this energy does not include ANY quantities calculated after the
  | s.c.f. cycle, in particular not ANY RPA, MP2, etc. many-body perturbation terms.

  Final zero-broadening corrected energy:
  | For metallic systems only, a broadening of the occupation numbers at the Fermi
  | level can be extrapolated back to zero broadening by an electron-gas inspired
  | formula. For all systems that are not real metals, this value can be
  | meaningless and should be avoided.

------------------------------------------------------------------------------
  Methods described in the following list of references were used in this FHI-aims run.
  If you publish the results, please make sure to cite these reference if they apply.
  FHI-aims is an academic code, and for our developers (often, Ph.D. students
  and postdocs), scientific credit in the community is essential.
  Thank you for helping us!

  For any use of FHI-aims, please cite:

    Volker Blum, Ralf Gehrke, Felix Hanke, Paula Havu, Ville Havu,
    Xinguo Ren, Karsten Reuter, and Matthias Scheffler
    'Ab initio molecular simulations with numeric atom-centered orbitals'
    Computer Physics Communications 180, 2175-2196 (2009)
    http://dx.doi.org/10.1016/j.cpc.2009.06.022


  The scalable eigensolver library ELPA was used in your run.
  ELPA is essential especially for large systems on hundreds or thousands of CPUs.
  For ELPA, please cite:

    Andreas Marek, Volker Blum, Rainer Johanni, Ville Havu, Bruno Lang,
    Thomas Auckenthaler, Alexander Heinecke, Hans-Joachim Bungartz, and Hermann Lederer,
    'The ELPA Library - Scalable Parallel Eigenvalue Solutions
    for Electronic Structure Theory and Computational Science'
    The Journal of Physics: Condensed Matter 26, 213201 (2014).
    http://dx.doi.org/10.1088/0953-8984/26/21/213201


  The ELSI infrastructure was used in your run to solve the Kohn-Sham electronic structure.
  Please check out http://elsi-interchange.org to learn more.
  If scalability is important for your project, please acknowledge ELSI by citing:

    V. W-z. Yu, F. Corsetti, A. Garcia, W. P. Huhn, M. Jacquelin, W. Jia,
    B. Lange, L. Lin, J. Lu, W. Mi, A. Seifitokaldani, A. Vazquez-Mayagoitia,
    C. Yang, H. Yang, and V. Blum
    'ELSI: A unified software interface for Kohn-Sham electronic structure solvers'
    Computer Physics Communications 222, 267-285 (2018).
    http://dx.doi.org/10.1016/j.cpc.2017.09.007


  For the real-space grid partitioning and parallelization used in this calculation, please cite:

    Ville Havu, Volker Blum, Paula Havu, and Matthias Scheffler,
    'Efficient O(N) integration for all-electron electronic structure calculation'
    'using numerically tabulated basis functions'
    Journal of Computational Physics 228, 8367-8379 (2009).
    http://dx.doi.org/10.1016/j.jcp.2009.08.008

  Of course, there are many other important community references, e.g., those cited in the
  above references. Our list is limited to references that describe implementations in the
  FHI-aims code. The reason is purely practical (length of this list) - please credit others as well.

 * A warning was issued further up regarding the accuracy of onsite integrals.
   An integral with a negative eigenvalue was among the flagged integrals.
   In most standard situations, this warning is probably harmless.
   If needed, this can be verified by adjusting the radial_multiplier flag.

------------------------------------------------------------
          Leaving FHI-aims.
          Date     :  20221011, Time     :  160156.284

          Computational steps:
          | Number of self-consistency cycles          :          126
          | Number of SCF (re)initializations          :            7
          | Number of relaxation steps                 :            6

          Detailed time accounting                     :  max(cpu_time)    wall_clock(cpu1)
          | Total time                                 :     1177.308 s        1177.480 s
          | Preparation time                           :        0.486 s           0.485 s
          | Boundary condition initalization           :        0.199 s           0.146 s
          | Grid partitioning                          :        1.970 s           1.969 s
          | Preloading free-atom quantities on grid    :        1.660 s           1.660 s
          | Free-atom superposition energy             :        0.341 s           0.341 s
          | Total time for integrations                :      190.182 s         190.189 s
          | Total time for solution of K.-S. equations :      171.079 s         171.120 s
          | Total time for EV reorthonormalization     :        3.200 s           3.201 s
          | Total time for density & force components  :      753.188 s         753.157 s
          | Total time for mixing                      :        1.239 s           1.247 s
          | Total time for Hartree multipole update    :        1.068 s           1.082 s
          | Total time for Hartree multipole sum       :       51.008 s          51.013 s
          | Total time for total energy evaluation     :        0.046 s           0.125 s
          | Total time for scaled ZORA corrections     :        0.000 s           0.000 s

          Partial memory accounting:
          | Residual value for overall tracked memory usage across tasks :           0.000 MB (should be 0.000 MB)
          | Peak values for overall tracked memory usage (after allocating wave_pulay):
          |   Minimum:      110.970 MB (on task 10)
          |   Maximum:      112.243 MB (on task  4)
          |   Average:      111.691 MB
          | Largest tracked array allocation (+KS_eigenvector):
          |   Minimum:       41.864 MB (on task  1)
          |   Maximum:       41.864 MB (on task  1)
          |   Average:       41.864 MB
          Note:  These values currently only include a subset of arrays which are explicitly tracked.
          The "true" memory usage will be greater.

          Have a nice day.
------------------------------------------------------------
