  MPI-parallelism will be employed.
------------------------------------------------------------
          Invoking FHI-aims ...
          Version 171221_1
          Compiled on 2020/07/14 at 14:43:00 on host scc1.

          When using FHI-aims, please cite the following reference:

          Volker Blum, Ralf Gehrke, Felix Hanke, Paula Havu,
          Ville Havu, Xinguo Ren, Karsten Reuter, and Matthias Scheffler,
          'Ab Initio Molecular Simulations with Numeric Atom-Centered Orbitals',
          Computer Physics Communications 180, 2175-2196 (2009)

          For any questions about FHI-aims, please visit the aimsclub website
          with its forums and wiki. Contributions to both the forums and the
          wiki are warmly encouraged - they are for you, and everyone is welcome there.

------------------------------------------------------------



  Date     :  20221010, Time     :  160356.434
  Time zero on CPU 1             :   0.212956000000000E+00  s.
  Internal wall clock time zero  :           434649836.434  s.

  FHI-aims created a unique identifier for this run for later identification
  aims_uuid : 5D61E1DB-3DB1-4618-A233-5C14EFBA68A7

  Using       16 parallel tasks.
  Task        0 on host scc-pf5 reporting.
  Task        1 on host scc-pf5 reporting.
  Task        2 on host scc-pf5 reporting.
  Task        3 on host scc-pf5 reporting.
  Task        4 on host scc-pf5 reporting.
  Task        5 on host scc-pf5 reporting.
  Task        6 on host scc-pf5 reporting.
  Task        7 on host scc-pf5 reporting.
  Task        8 on host scc-pf5 reporting.
  Task        9 on host scc-pf5 reporting.
  Task       10 on host scc-pf5 reporting.
  Task       11 on host scc-pf5 reporting.
  Task       12 on host scc-pf5 reporting.
  Task       13 on host scc-pf5 reporting.
  Task       14 on host scc-pf5 reporting.
  Task       15 on host scc-pf5 reporting.

  Performing system and environment tests:
  | Environment variable OMP_NUM_THREADS correctly set to 1.
  | Stacksize not measured: no C compiler
  | Checking for scalapack...
  | Testing pdtran()...
  | All pdtran() tests passed.

  Obtaining array dimensions for all initial allocations:
  
  -----------------------------------------------------------------------
  Parsing control.in (first pass over file, find array dimensions only).
  The contents of control.in will be repeated verbatim below
  unless switched off by setting 'verbatim_writeout .false.' .
  in the first line of control.in .
  -----------------------------------------------------------------------
  
  ##################################################
  #
  #  input file :  au18 - benzimid - au18
  #
  ##################################################
  #
  #  Physical model
  #
    xc                 pbe
    spin               none
    charge             0.
  #  KS_method	     lapack_fast
  #
  #  SCF convergence
  #
    occupation_type    gaussian 0.01
    mixer              pulay
      n_max_pulay        10
      charge_mix_param   0.2
    sc_accuracy_rho    1E-4
    sc_accuracy_eev    1E-2
    sc_accuracy_etot   1E-6
  # sc_accuracy_forces 1E-4
    sc_iter_limit      500
  #
  #  Relaxation
  #
    relax_geometry   bfgs 1.e-2
  #
  
  #  output an overlap matrix & wave functions
  #  to enable a post-processor transport calculation :
  #   output aitranss
  
  #  to enable restart of the calculation
     restart aims.restart
  
  #  scalar-relativistic treatment
     relativistic atomic_zora scalar
  #
  ################################################################################
  #
  #  FHI-aims code project
  #  VB, Fritz-Haber Institut, 2009
  #
  #  Suggested "light" defaults for Au atom (to be pasted into control.in file)
  #  Be sure to double-check any results obtained with these settings for post-processing,
  #  e.g., with the "tight" defaults and larger basis sets.
  #
  ################################################################################
    species        Au
  #     global species definitions
      nucleus             79
      mass                196.966569
  #
      l_hartree           4
  #
      cut_pot             3.5  1.5  1.0
      basis_dep_cutoff    1e-4
  #
      radial_base         73 5.0
      radial_multiplier   1
      angular_grids specified
        division   0.5066   50
        division   0.9861  110
        division   1.2821  194
        division   1.5344  302
  #      division   2.0427  434
  #      division   2.1690  590
  #      division   2.2710  770
  #      division   2.3066  974
  #      division   2.7597 1202
  #      outer_grid 974
        outer_grid 302
  ################################################################################
  #
  #  Definition of "minimal" basis
  #
  ################################################################################
  #     valence basis states
      valence      6  s   1.
      valence      5  p   6.
      valence      5  d  10.
      valence      4  f  14.
  #     ion occupancy
      ion_occ     6  s   0.
      ion_occ     5  p   6.
      ion_occ     5  d   9.
      ion_occ     4  f   14.
  ################################################################################
  #
  #  Suggested additional basis functions. For production calculations,
  #  uncomment them one after another (the most important basis functions are
  #  listed first).
  #
  #  Constructed for dimers: 2.10, 2.45, 3.00, 4.00 AA
  #
  ################################################################################
  #  "First tier" - max. impr. -161.60  meV, min. impr. -4.53 meV
       ionic 6 p auto
       hydro 4 f 7.4
       ionic 6 s auto
       hydro 5 g 10
       hydro 6 h 12.8
       hydro 3 d 2.5
  #  "Second tier" - max. impr. -2.46  meV, min. impr. -0.28 meV
  #     hydro 5 f 14.8
  #     hydro 4 d 3.9
  #     hydro 3 p 3.3
  #     hydro 1 s 0.45
  #     hydro 5 g 16.4
  #     hydro 6 h 13.6
  #  "Third tier" - max. impr. -0.49  meV, min. impr. -0.09 meV
  #     hydro 4 f 5.2
  #     hydro 4 d 5
  #     hydro 5 g 8
  #     hydro 5 p 8.2
  #     hydro 6 d 12.4
  #     hydro 6 s 14.8
  #  Further basis functions: -0.08 meV and below
  #     hydro 5 f 18.8
  #     hydro 5 g 20
  #    hydro 5 g 15.2
  ################################################################################
  #
  #  FHI-aims code project
  #  VB, Fritz-Haber Institut, 2009
  #
  #  Suggested "light" defaults for C atom (to be pasted into control.in file)
  #  Be sure to double-check any results obtained with these settings for post-processing,
  #  e.g., with the "tight" defaults and larger basis sets.
  #
  ################################################################################
    species        C
  #     global species definitions
      nucleus             6
      mass                12.0107
  #
      l_hartree           4
  #
      cut_pot             3.5  1.5  1.0
      basis_dep_cutoff    1e-4
  #
      radial_base         34 5.0
      radial_multiplier   1
      angular_grids specified
        division   0.3326   50
        division   0.5710  110
        division   0.7727  194
        division   0.8772  302
  #      division   0.9334  434
  #      division   0.9625  590
  #      division   0.9924  770
  #      division   1.0230  974
  #      division   1.4589 1202
  #     outer_grid  974
       outer_grid 302
  ################################################################################
  #
  #  Definition of "minimal" basis
  #
  ################################################################################
  #     valence basis states
      valence      2  s   2.
      valence      2  p   2.
  #     ion occupancy
      ion_occ      2  s   1.
      ion_occ      2  p   1.
  ################################################################################
  #
  #  Suggested additional basis functions. For production calculations,
  #  uncomment them one after another (the most important basis functions are
  #  listed first).
  #
  #  Constructed for dimers: 1.0 A, 1.25 A, 1.5 A, 2.0 A, 3.0 A
  #
  ################################################################################
  #  "First tier" - improvements: -1214.57 meV to -155.61 meV
       hydro 2 p 1.7
       hydro 3 d 6
       hydro 2 s 4.9
  #  "Second tier" - improvements: -67.75 meV to -5.23 meV
  #     hydro 4 f 9.8
  #     hydro 3 p 5.2
  #     hydro 3 s 4.3
  #     hydro 5 g 14.4
  #     hydro 3 d 6.2
  #  "Third tier" - improvements: -2.43 meV to -0.60 meV
  #     hydro 2 p 5.6
  #     hydro 2 s 1.4
  #     hydro 3 d 4.9
  #     hydro 4 f 11.2
  #  "Fourth tier" - improvements: -0.39 meV to -0.18 meV
  #     hydro 2 p 2.1
  #     hydro 5 g 16.4
  #     hydro 4 d 13.2
  #     hydro 3 s 13.6
  #     hydro 4 f 17.6
  #  Further basis functions - improvements: -0.08 meV and below
  #     hydro 3 s 2
  #     hydro 3 p 6
  #     hydro 4 d 20
  ################################################################################
  #
  #  FHI-aims code project
  #  VB, Fritz-Haber Institut, 2009
  #
  #  Suggested "light" defaults for H atom (to be pasted into control.in file)
  #  Be sure to double-check any results obtained with these settings for post-processing,
  #  e.g., with the "tight" defaults and larger basis sets.
  #
  ################################################################################
    species        H
  #     global species definitions
      nucleus             1
      mass                1.00794
  #
      l_hartree           4
  #
      cut_pot             3.5  1.5  1.0
      basis_dep_cutoff    1e-4
  #
      radial_base         24 5.0
      radial_multiplier   1
      angular_grids       specified
        division   0.2421   50
        division   0.3822  110
        division   0.4799  194
        division   0.5341  302
  #      division   0.5626  434
  #      division   0.5922  590
  #      division   0.6542  770
  #      division   0.6868 1202
  #      outer_grid  770
        outer_grid  302
  ################################################################################
  #
  #  Definition of "minimal" basis
  #
  ################################################################################
  #     valence basis states
      valence      1  s   1.
  #     ion occupancy
      ion_occ      1  s   0.5
  ################################################################################
  #
  #  Suggested additional basis functions. For production calculations,
  #  uncomment them one after another (the most important basis functions are
  #  listed first).
  #
  #  Basis constructed for dimers: 0.5 A, 0.7 A, 1.0 A, 1.5 A, 2.5 A
  #
  ################################################################################
  #  "First tier" - improvements: -1014.90 meV to -62.69 meV
       hydro 2 s 2.1
       hydro 2 p 3.5
  #  "Second tier" - improvements: -12.89 meV to -1.83 meV
  #     hydro 1 s 0.85
  #     hydro 2 p 3.7
  #     hydro 2 s 1.2
  #     hydro 3 d 7
  #  "Third tier" - improvements: -0.25 meV to -0.12 meV
  #     hydro 4 f 11.2
  #     hydro 3 p 4.8
  #     hydro 4 d 9
  #     hydro 3 s 3.2
  ################################################################################
  #
  #  FHI-aims code project
  #  VB, Fritz-Haber Institut, 2009
  #
  #  Suggested "light" defaults for N atom (to be pasted into control.in file)
  #  Be sure to double-check any results obtained with these settings for post-processing,
  #  e.g., with the "tight" defaults and larger basis sets.
  #
  ################################################################################
    species        N
  #     global species definitions
      nucleus             7
      mass                14.0067
  #
      l_hartree           4
  #
      cut_pot             3.5  1.5  1.0
      basis_dep_cutoff    1e-4
  #
      radial_base         35 5.0
      radial_multiplier   1
      angular_grids       specified
        division   0.2599   50
        division   0.4601  110
        division   0.5885  194
        division   0.6503  302
  #      division   0.6939  434
  #      division   0.7396  590
  #      division   0.7632  770
  #      division   0.8122  974
  #      division   1.1604 1202
  #      outer_grid  974
        outer_grid  302
  ################################################################################
  #
  #  Definition of "minimal" basis
  #
  ################################################################################
  #     valence basis states
      valence      2  s   2.
      valence      2  p   3.
  #     ion occupancy
      ion_occ      2  s   1.
      ion_occ      2  p   2.
  ################################################################################
  #
  #  Suggested additional basis functions. For production calculations,
  #  uncomment them one after another (the most important basis functions are
  #  listed first).
  #
  #  Constructed for dimers: 1.0 A, 1.1 A, 1.5 A, 2.0 A, 3.0 A
  #
  ################################################################################
  #  "First tier" - improvements: -1193.42 meV to -220.60 meV
       hydro 2 p 1.8
       hydro 3 d 6.8
       hydro 3 s 5.8
  #  "Second tier" - improvements: -80.21 meV to -6.86 meV
  #     hydro 4 f 10.8
  #     hydro 3 p 5.8
  #     hydro 1 s 0.8
  #     hydro 5 g 16
  #     hydro 3 d 4.9
  #  "Third tier" - improvements: -4.29 meV to -0.53 meV
  #     hydro 3 s 16
  #     ionic 2 p auto
  #     hydro 3 d 6.6
  #     hydro 4 f 11.6
  #  "Fourth tier" - improvements: -0.75 meV to -0.25 meV
  #     hydro 2 p 4.5
  #     hydro 2 s 2.4
  #     hydro 5 g 14.4
  #     hydro 4 d 14.4
  #     hydro 4 f 16.8
  # Further basis functions - -0.21 meV and below
  #     hydro 3 p 14.8
  #     hydro 3 s 4.4
  #     hydro 3 d 19.6
  #     hydro 5 g 12.8
  
  
  -----------------------------------------------------------------------
  Completed first pass over input file control.in .
  -----------------------------------------------------------------------
  
  
  -----------------------------------------------------------------------
  Parsing geometry.in (first pass over file, find array dimensions only).
  The contents of geometry.in will be repeated verbatim below
  unless switched off by setting 'verbatim_writeout .false.' .
  in the first line of geometry.in .
  -----------------------------------------------------------------------
  
  #
  atom       0.87428620      2.18753104      0.76451027 N
  atom      -0.05188613      2.00793947     -0.17497867 C
  atom       0.92160221      1.02653481      1.52490553 C
  atom      -0.00373245      0.13813292      1.02437887 C
  atom      -0.60402674      0.77481974     -0.04466561 N
  atom      -0.32986665      2.72748192     -0.93730308 H
  atom      -0.27310742     -0.86549394      1.33268348 H
  atom       1.83471205      0.86577274      2.69380957 C
  atom       2.87074258      1.08363789      2.38359795 H
  atom       1.80528358     -0.18221652      3.03298111 H
  atom       1.44486631      1.77378072      3.86633960 C
  atom       1.60188572      2.83232466      3.59537922 H
  atom       0.38296921      1.63560613      4.11148649 H
  atom       2.23086973      1.41165012      5.07586643 N
  atom       3.23197867      1.54589705      4.89957757 H
  atom       1.99056461      2.03952570      5.84807323 H
  atom      -1.32884626      0.38598530     -0.64123020 H
  atom       1.89879541     -0.69292892      5.81461743 Au
  atom       1.33242294     -3.24332214      4.96068406 Au
  atom       3.60540817     -2.64753740      6.72479967 Au
  atom       0.85971141     -2.25697150      7.72731683 Au
  atom       0.70625910     -5.89253249      4.29294961 Au
    constrain_relaxation .true.
  atom       2.96257454     -5.26958355      5.97723972 Au
    constrain_relaxation .true.
  atom       5.21888997     -4.64663462      7.66152983 Au
    constrain_relaxation .true.
  atom       0.27920868     -4.90510287      6.96848105 Au
    constrain_relaxation .true.
  atom       2.53552412     -4.28215394      8.65277117 Au
    constrain_relaxation .true.
  atom      -0.14784174     -3.91767325      9.64401252 Au
    constrain_relaxation .true.
  atom       2.35399702     -8.01523312      5.33935280 Au
    constrain_relaxation .true.
  atom       4.61031245     -7.39228419      7.02364291 Au
    constrain_relaxation .true.
  atom      -0.32936883     -7.65075244      6.33059413 Au
    constrain_relaxation .true.
  atom       1.92694660     -7.02780351      8.01488425 Au
    constrain_relaxation .true.
  atom       4.18326203     -6.40485457      9.69917436 Au
    constrain_relaxation .true.
  atom      -0.75641925     -6.66332282      9.00612559 Au
    constrain_relaxation .true.
  atom       1.49989617     -6.04037389     10.69041570 Au
    constrain_relaxation .true.
  atom      -1.97710674     -5.52805181      5.28419094 Au
    constrain_relaxation .true.
  atom       1.99250801      4.06107838      0.93650839 Au
  atom       3.59297735      6.12653511      1.51280807 Au
  atom       3.43980454      5.03573576     -1.20149619 Au
  atom       1.06176265      6.41751156     -0.05151411 Au
  atom       5.15523665      8.41218520      2.00547495 Au
    constrain_relaxation .true.
  atom       5.00504716      7.26102101     -0.63424511 Au
    constrain_relaxation .true.
  atom       4.85485767      6.10985681     -3.27396517 Au
    constrain_relaxation .true.
  atom       2.71593711      8.61472738      0.48079393 Au
    constrain_relaxation .true.
  atom       2.56574761      7.46356319     -2.15892613 Au
    constrain_relaxation .true.
  atom       0.27663755      8.81726957     -1.04388710 Au
    constrain_relaxation .true.
  atom       6.61684530      9.60756094     -0.17412017 Au
    constrain_relaxation .true.
  atom       6.46665581      8.45639674     -2.81384022 Au
    constrain_relaxation .true.
  atom       4.32773525     10.96126731      0.94091887 Au
    constrain_relaxation .true.
  atom       4.17754575      9.81010312     -1.69880119 Au
    constrain_relaxation .true.
  atom       4.02735626      8.65893892     -4.33852125 Au
    constrain_relaxation .true.
  atom       1.88843570     11.16380950     -0.58376216 Au
    constrain_relaxation .true.
  atom       1.73824620     10.01264530     -3.22348222 Au
    constrain_relaxation .true.
  atom       2.86612660      9.76589158      3.12051398 Au
    constrain_relaxation .true.
  
  -----------------------------------------------------------------------
  Completed first pass over input file geometry.in .
  -----------------------------------------------------------------------
  

  Basic array size parameters:
  | Number of species                 :        4
  | Number of atoms                   :       53
  | Max. basis fn. angular momentum   :        5
  | Max. atomic/ionic basis occupied n:        6
  | Max. number of basis fn. types    :        3
  | Max. radial fns per species/type  :       14
  | Max. logarithmic grid size        :     1488
  | Max. radial integration grid size :       73
  | Max. angular integration grid size:      302
  | Max. angular grid division number :        8
  | Radial grid for Hartree potential :     1488
  | Number of spin channels           :        1

------------------------------------------------------------
          Reading file control.in.
------------------------------------------------------------
  XC: Using PBE gradient-corrected functionals.
  Spin treatment: No spin polarisation.
  Charge =   0.000000E+00: Neutral system requested explicitly.
  Occupation type: Gaussian broadening, width =   0.100000E-01 eV.
  Using pulay charge density mixing.
  Pulay mixing - number of memorized iterations:   10
  Charge density mixing - mixing parameter:     0.2000
  Convergence accuracy of self-consistent charge density:  0.1000E-03
  Convergence accuracy of sum of eigenvalues:  0.1000E-01
  Convergence accuracy of total energy:  0.1000E-05
  Maximum number of s.-c. iterations  :   500
  Geometry relaxation: Modified BFGS - TRM (trust radius method, i.e., trusted quadratic extrapolation).
  Convergence accuracy for geometry relaxation: Maximum force <   0.100000E-01 eV/A.
  Restart file specified as : aims.restart
  | This file does not exist, will create it after the first complete scf cycle.
  Scalar relativistic treatment of kinetic energy: on-site free-atom approximation to ZORA.
 
  Reading configuration options for species Au                  .
  | Found nuclear charge :  79.0000
  | Found atomic mass :    196.966569000000      amu
  | Found l_max for Hartree potential  :   4
  | Found cutoff potl. onset [A], width [A], scale factor :    3.50000    1.50000    1.00000
  | Threshold for basis-dependent cutoff potential is   0.100000E-03
  | Found data for basic radial integration grid :    73 points, outermost radius =    5.000 A
  | Found multiplier for basic radial grid :   1
  | Found angular grid specification: user-specified.
  | Specified grid contains     5 separate shells.
  | Check grid settings after all constraints further below.
  | Found free-atom valence shell :  6 s   1.000
  | Found free-atom valence shell :  5 p   6.000
  | Found free-atom valence shell :  5 d  10.000
  | Found free-atom valence shell :  4 f  14.000
  | Found free-ion valence shell :  6 s   0.000
  | Found free-ion valence shell :  5 p   6.000
  | Found free-ion valence shell :  5 d   9.000
  | Found free-ion valence shell :  4 f  14.000
  | Found ionic basis function :  6 p , default cutoff radius.
  | Found hydrogenic basis function :  4 f   7.400
  | Found ionic basis function :  6 s , default cutoff radius.
  | Found hydrogenic basis function :  5 g  10.000
  | Found hydrogenic basis function :  6 h  12.800
  | Found hydrogenic basis function :  3 d   2.500
  Species Au                  : Missing cutoff potential type.
  Defaulting to exp(1/x)/(1-x)^2 type cutoff potential.
  Species Au: No 'logarithmic' tag. Using default grid for free atom:
  | Default logarithmic grid data [bohr] : 0.1000E-03 0.1000E+03 0.1012E+01
  | Will include ionic basis functions of  2.0-fold positive Au                   ion.
  Species Au: On-site basis accuracy parameter (for Gram-Schmidt orthonormalisation) not specified.
  Using default value basis_acc =  0.1000000E-03.
  Species Au                  : Using default innermost maximum threshold i_radial=  2 for radial functions.
  Species Au                  : Default cutoff onset for free atom density etc. : 0.35000000E+01 AA.
  Species Au                  : Basic radial grid will be enhanced according to radial_multiplier =   1, to contain    73 grid points.
 
  Reading configuration options for species C                   .
  | Found nuclear charge :   6.0000
  | Found atomic mass :    12.0107000000000      amu
  | Found l_max for Hartree potential  :   4
  | Found cutoff potl. onset [A], width [A], scale factor :    3.50000    1.50000    1.00000
  | Threshold for basis-dependent cutoff potential is   0.100000E-03
  | Found data for basic radial integration grid :    34 points, outermost radius =    5.000 A
  | Found multiplier for basic radial grid :   1
  | Found angular grid specification: user-specified.
  | Specified grid contains     5 separate shells.
  | Check grid settings after all constraints further below.
  | Found free-atom valence shell :  2 s   2.000
  | Found free-atom valence shell :  2 p   2.000
  | Found free-ion valence shell :  2 s   1.000
  | Found free-ion valence shell :  2 p   1.000
  | Found hydrogenic basis function :  2 p   1.700
  | Found hydrogenic basis function :  3 d   6.000
  | Found hydrogenic basis function :  2 s   4.900
  Species C                   : Missing cutoff potential type.
  Defaulting to exp(1/x)/(1-x)^2 type cutoff potential.
  Species C : No 'logarithmic' tag. Using default grid for free atom:
  | Default logarithmic grid data [bohr] : 0.1000E-03 0.1000E+03 0.1012E+01
  Species C : On-site basis accuracy parameter (for Gram-Schmidt orthonormalisation) not specified.
  Using default value basis_acc =  0.1000000E-03.
  Species C                   : Using default innermost maximum threshold i_radial=  2 for radial functions.
  Species C                   : Default cutoff onset for free atom density etc. : 0.35000000E+01 AA.
  Species C                   : Basic radial grid will be enhanced according to radial_multiplier =   1, to contain    34 grid points.
 
  Reading configuration options for species H                   .
  | Found nuclear charge :   1.0000
  | Found atomic mass :    1.00794000000000      amu
  | Found l_max for Hartree potential  :   4
  | Found cutoff potl. onset [A], width [A], scale factor :    3.50000    1.50000    1.00000
  | Threshold for basis-dependent cutoff potential is   0.100000E-03
  | Found data for basic radial integration grid :    24 points, outermost radius =    5.000 A
  | Found multiplier for basic radial grid :   1
  | Found angular grid specification: user-specified.
  | Specified grid contains     5 separate shells.
  | Check grid settings after all constraints further below.
  | Found free-atom valence shell :  1 s   1.000
  | Found free-ion valence shell :  1 s   0.500
  | Found hydrogenic basis function :  2 s   2.100
  | Found hydrogenic basis function :  2 p   3.500
  Species H                   : Missing cutoff potential type.
  Defaulting to exp(1/x)/(1-x)^2 type cutoff potential.
  Species H : No 'logarithmic' tag. Using default grid for free atom:
  | Default logarithmic grid data [bohr] : 0.1000E-03 0.1000E+03 0.1012E+01
  Species H : On-site basis accuracy parameter (for Gram-Schmidt orthonormalisation) not specified.
  Using default value basis_acc =  0.1000000E-03.
  Species H                   : Using default innermost maximum threshold i_radial=  2 for radial functions.
  Species H                   : Default cutoff onset for free atom density etc. : 0.35000000E+01 AA.
  Species H                   : Basic radial grid will be enhanced according to radial_multiplier =   1, to contain    24 grid points.
 
  Reading configuration options for species N                   .
  | Found nuclear charge :   7.0000
  | Found atomic mass :    14.0067000000000      amu
  | Found l_max for Hartree potential  :   4
  | Found cutoff potl. onset [A], width [A], scale factor :    3.50000    1.50000    1.00000
  | Threshold for basis-dependent cutoff potential is   0.100000E-03
  | Found data for basic radial integration grid :    35 points, outermost radius =    5.000 A
  | Found multiplier for basic radial grid :   1
  | Found angular grid specification: user-specified.
  | Specified grid contains     5 separate shells.
  | Check grid settings after all constraints further below.
  | Found free-atom valence shell :  2 s   2.000
  | Found free-atom valence shell :  2 p   3.000
  | Found free-ion valence shell :  2 s   1.000
  | Found free-ion valence shell :  2 p   2.000
  | Found hydrogenic basis function :  2 p   1.800
  | Found hydrogenic basis function :  3 d   6.800
  | Found hydrogenic basis function :  3 s   5.800
  Species N                   : Missing cutoff potential type.
  Defaulting to exp(1/x)/(1-x)^2 type cutoff potential.
  Species N : No 'logarithmic' tag. Using default grid for free atom:
  | Default logarithmic grid data [bohr] : 0.1000E-03 0.1000E+03 0.1012E+01
  Species N : On-site basis accuracy parameter (for Gram-Schmidt orthonormalisation) not specified.
  Using default value basis_acc =  0.1000000E-03.
  Species N                   : Using default innermost maximum threshold i_radial=  2 for radial functions.
  Species N                   : Default cutoff onset for free atom density etc. : 0.35000000E+01 AA.
  Species N                   : Basic radial grid will be enhanced according to radial_multiplier =   1, to contain    35 grid points.
 
  Finished reading input file 'control.in'. Consistency checks are next.
 
  MPI_IN_PLACE appears to work with this MPI implementation.
  | Keeping use_mpi_in_place .true. (see manual).
  Target number of points in a grid batch is not set. Defaulting to  100
  Method for grid partitioning is not set. Defaulting to parallel hash+maxmin partitioning.
  Batch size limit is not set. Defaulting to    200
  By default, will store active basis functions for each batch.
  If in need of memory, prune_basis_once .false. can be used to disable this option.
  communication_type for Hartree potential was not specified.
  Defaulting to calc_hartree .
  Pulay mixer: Number of initial linear mixing iterations not set.
  Defaulting to    0 iterations.
  Work space size for distributed Hartree potential not set.
  Defaulting to   0.200000E+03 MB.
  Algorithm-dependent basis array size parameters:
  | n_max_pulay                         :       10
  Presetting      1001 iterations before the initial mixing cycle
  is restarted anyway using the sc_init_iter criterion / keyword.
  Presetting a factor      1.000 between actual scf density residual
  and density convergence criterion sc_accuracy_rho below which sc_init_iter
  takes no effect.
  No maximum number of relaxation steps, defaulting to     1000
  Default initial Hessian is Lindh matrix (thres = 15.00) plus  0.200000E+01 eV/A^2 times unity.
  No maximum energy tolerance for TRM/BFGS moves, defaulting to   0.200000E-03
  No harmonic length scale. Defaulting to   0.250000E-01 A.
  No trust radius initializer. Defaulting to   0.200000E+00 A.
  Force calculation: scf convergence accuracy of forces not set.
  Defaulting to 'sc_accuracy_forces not_checked'.
  Handling of forces: Unphysical translation and rotation will be removed from forces.
  No accuracy limit for integral partition fn. given. Defaulting to  0.1000E-14.
  No threshold value for u(r) in integrations given. Defaulting to  0.1000E-05.
  No accuracy for occupation numbers given. Defaulting to  0.1000E-12.
  No threshold value for occupation numbers given. Defaulting to  0.0000E+00.
  No accuracy for fermi level given. Defaulting to  0.1000E-19.
  Maximum # of iterations to find E_F not set. Defaulting to  200.
  Preferred method for the eigenvalue solver ('KS_method') not specified in 'control.in'.
  Calling BLACS routine to test compilation state
  Since ScaLAPACK support is enabled, defaulting to 'elsi'.
  Will not use alltoall communication since running on < 1024 CPUs.
  Threshold for basis singularities not set.
  Default threshold for basis singularities:  0.1000E-04
  partition_type (choice of integration weights) for integrals was not specified.
  | Using a version of the partition function of Stratmann and coworkers ('stratmann_smoother').
  | At each grid point, the set of atoms used to build the partition table is smoothly restricted to
  | only those atoms whose free-atom density would be non-zero at that grid point.
  Partitioning for Hartree potential was not defined. Using partition_type for integrals.
  | Adjusted default value of keyword multip_moments_threshold to:       0.10000000E-11
  | This value may affect high angular momentum components of the Hartree potential in periodic systems.
  No q(lm)/r^(l+1) cutoff set for long-range Hartree potential.
  | Using default value of  0.100000E-09 .
  | Verify using the multipole_threshold keyword.
  Defaulting to new monopole extrapolation.
  Density update method: automatic selection selected.
  Geometry relaxation: A file "geometry.in.next_step" is written out by default after each step.
  | This file contains the geometry of the current relaxation step as well as
  | the current Hessian matrix needed to restart the relaxation algorithm.
  | If you do not want part or all of this information, use the keywords
  | "write_restart_geometry" or "hessian_to_restart_geometry" to switch the output off.
------------------------------------------------------------


------------------------------------------------------------
          Reading geometry description geometry.in.
------------------------------------------------------------
  Found relaxation constraint for atom     22: All coordinates fixed.
  Found relaxation constraint for atom     23: All coordinates fixed.
  Found relaxation constraint for atom     24: All coordinates fixed.
  Found relaxation constraint for atom     25: All coordinates fixed.
  Found relaxation constraint for atom     26: All coordinates fixed.
  Found relaxation constraint for atom     27: All coordinates fixed.
  Found relaxation constraint for atom     28: All coordinates fixed.
  Found relaxation constraint for atom     29: All coordinates fixed.
  Found relaxation constraint for atom     30: All coordinates fixed.
  Found relaxation constraint for atom     31: All coordinates fixed.
  Found relaxation constraint for atom     32: All coordinates fixed.
  Found relaxation constraint for atom     33: All coordinates fixed.
  Found relaxation constraint for atom     34: All coordinates fixed.
  Found relaxation constraint for atom     35: All coordinates fixed.
  Found relaxation constraint for atom     40: All coordinates fixed.
  Found relaxation constraint for atom     41: All coordinates fixed.
  Found relaxation constraint for atom     42: All coordinates fixed.
  Found relaxation constraint for atom     43: All coordinates fixed.
  Found relaxation constraint for atom     44: All coordinates fixed.
  Found relaxation constraint for atom     45: All coordinates fixed.
  Found relaxation constraint for atom     46: All coordinates fixed.
  Found relaxation constraint for atom     47: All coordinates fixed.
  Found relaxation constraint for atom     48: All coordinates fixed.
  Found relaxation constraint for atom     49: All coordinates fixed.
  Found relaxation constraint for atom     50: All coordinates fixed.
  Found relaxation constraint for atom     51: All coordinates fixed.
  Found relaxation constraint for atom     52: All coordinates fixed.
  Found relaxation constraint for atom     53: All coordinates fixed.
  Input structure read successfully.
  The structure contains       53 atoms,  and a total of       2904.000 electrons.

  Input geometry:
  | No unit cell requested.
  | Atomic structure:
  |       Atom                x [A]            y [A]            z [A]
  |    1: Species N             0.87428620        2.18753104        0.76451027
  |    2: Species C            -0.05188613        2.00793947       -0.17497867
  |    3: Species C             0.92160221        1.02653481        1.52490553
  |    4: Species C            -0.00373245        0.13813292        1.02437887
  |    5: Species N            -0.60402674        0.77481974       -0.04466561
  |    6: Species H            -0.32986665        2.72748192       -0.93730308
  |    7: Species H            -0.27310742       -0.86549394        1.33268348
  |    8: Species C             1.83471205        0.86577274        2.69380957
  |    9: Species H             2.87074258        1.08363789        2.38359795
  |   10: Species H             1.80528358       -0.18221652        3.03298111
  |   11: Species C             1.44486631        1.77378072        3.86633960
  |   12: Species H             1.60188572        2.83232466        3.59537922
  |   13: Species H             0.38296921        1.63560613        4.11148649
  |   14: Species N             2.23086973        1.41165012        5.07586643
  |   15: Species H             3.23197867        1.54589705        4.89957757
  |   16: Species H             1.99056461        2.03952570        5.84807323
  |   17: Species H            -1.32884626        0.38598530       -0.64123020
  |   18: Species Au            1.89879541       -0.69292892        5.81461743
  |   19: Species Au            1.33242294       -3.24332214        4.96068406
  |   20: Species Au            3.60540817       -2.64753740        6.72479967
  |   21: Species Au            0.85971141       -2.25697150        7.72731683
  |   22: Species Au            0.70625910       -5.89253249        4.29294961
  |   23: Species Au            2.96257454       -5.26958355        5.97723972
  |   24: Species Au            5.21888997       -4.64663462        7.66152983
  |   25: Species Au            0.27920868       -4.90510287        6.96848105
  |   26: Species Au            2.53552412       -4.28215394        8.65277117
  |   27: Species Au           -0.14784174       -3.91767325        9.64401252
  |   28: Species Au            2.35399702       -8.01523312        5.33935280
  |   29: Species Au            4.61031245       -7.39228419        7.02364291
  |   30: Species Au           -0.32936883       -7.65075244        6.33059413
  |   31: Species Au            1.92694660       -7.02780351        8.01488425
  |   32: Species Au            4.18326203       -6.40485457        9.69917436
  |   33: Species Au           -0.75641925       -6.66332282        9.00612559
  |   34: Species Au            1.49989617       -6.04037389       10.69041570
  |   35: Species Au           -1.97710674       -5.52805181        5.28419094
  |   36: Species Au            1.99250801        4.06107838        0.93650839
  |   37: Species Au            3.59297735        6.12653511        1.51280807
  |   38: Species Au            3.43980454        5.03573576       -1.20149619
  |   39: Species Au            1.06176265        6.41751156       -0.05151411
  |   40: Species Au            5.15523665        8.41218520        2.00547495
  |   41: Species Au            5.00504716        7.26102101       -0.63424511
  |   42: Species Au            4.85485767        6.10985681       -3.27396517
  |   43: Species Au            2.71593711        8.61472738        0.48079393
  |   44: Species Au            2.56574761        7.46356319       -2.15892613
  |   45: Species Au            0.27663755        8.81726957       -1.04388710
  |   46: Species Au            6.61684530        9.60756094       -0.17412017
  |   47: Species Au            6.46665581        8.45639674       -2.81384022
  |   48: Species Au            4.32773525       10.96126731        0.94091887
  |   49: Species Au            4.17754575        9.81010312       -1.69880119
  |   50: Species Au            4.02735626        8.65893892       -4.33852125
  |   51: Species Au            1.88843570       11.16380950       -0.58376216
  |   52: Species Au            1.73824620       10.01264530       -3.22348222
  |   53: Species Au            2.86612660        9.76589158        3.12051398
  |

  | The smallest distance between any two atoms is         1.01609294 AA.
  |
  | The first atom of this pair is atom number                      5 .
  | The second atom of this pair is atom number                    17 .

  Number of empty states per atom not set in control.in - providing a guess from actual geometry.
  | Total number of empty states used during s.c.f. cycle:      362
  If you use a very high smearing, use empty_states (per atom!) in control.in to increase this value.

  Structure-dependent array size parameters: 
  | Maximum number of distinct radial functions  :       35
  | Maximum number of basis functions            :     2893
  | Number of Kohn-Sham states (occupied + empty):     1814
------------------------------------------------------------

------------------------------------------------------------
          Preparing all fixed parts of the calculation.
------------------------------------------------------------
  Determining machine precision:
    2.225073858507201E-308
  Setting up grids for atomic and cluster calculations.

  Creating wave function, potential, and density for free atoms.

  Species: Au

  List of occupied orbitals and eigenvalues:
    n    l              occ      energy [Ha]    energy [eV]
    1    0           2.0000     -3256.431199    -88612.0015
    2    0           2.0000      -533.654865    -14521.4877
    3    0           2.0000      -124.232088     -3380.5271
    4    0           2.0000       -26.843821      -730.4575
    5    0           2.0000        -3.974251      -108.1449
    6    0           1.0000        -0.207180        -5.6377
    2    1           6.0000      -460.384091    -12527.6885
    3    1           6.0000      -103.448928     -2814.9886
    4    1           6.0000       -20.075789      -546.2900
    5    1           6.0000        -2.189737       -59.5858
    3    2          10.0000       -81.364825     -2214.0495
    4    2          10.0000       -11.975168      -325.8609
    5    2          10.0000        -0.249072        -6.7776
    4    3          14.0000        -2.985533       -81.2405


  Species: C

  List of occupied orbitals and eigenvalues:
    n    l              occ      energy [Ha]    energy [eV]
    1    0           2.0000       -10.046810      -273.3876
    2    0           2.0000        -0.503128       -13.6908
    2    1           2.0000        -0.191849        -5.2205


  Species: H

  List of occupied orbitals and eigenvalues:
    n    l              occ      energy [Ha]    energy [eV]
    1    0           1.0000        -0.237593        -6.4652


  Species: N

  List of occupied orbitals and eigenvalues:
    n    l              occ      energy [Ha]    energy [eV]
    1    0           2.0000       -14.143973      -384.8771
    2    0           2.0000        -0.682008       -18.5584
    2    1           3.0000        -0.259605        -7.0642

  Creating fixed part of basis set: Ionic, confined, hydrogenic.
 
  Au                   ion:

  List of free ionic orbitals and eigenvalues:
    n    l      energy [Ha]    energy [eV]
    1    0     -3257.305345    -88635.7882
    2    0      -534.468969    -14543.6406
    3    0      -125.037161     -3402.4343
    4    0       -27.646714      -752.3054
    5    0        -4.773414      -129.8912
    2    1      -461.196653    -12549.7994
    3    1      -104.253556     -2836.8836
    4    1       -20.878488      -568.1326
    5    1        -2.984283       -81.2065
    3    2       -82.168946     -2235.9308
    4    2       -12.777596      -347.6961
    5    2        -1.004504       -27.3340
    4    3        -3.787521      -103.0637


  List of ionic basis orbitals and eigenvalues:
    n    l      energy [Ha]    energy [eV]    outer radius [A]
    6    1        -0.535414       -14.5694       4.560053
    6    0        -0.835538       -22.7361       4.504645

 
  Au                   hydrogenic:
 
  List of hydrogenic basis orbitals: 
    n    l      effective z      eigenvalue [eV]  inner max. [A]     outer max. [A]     outer radius [A]   
    4    3         7.400000       -46.5648           1.145580           1.145580           4.504645
    5    4        10.000000       -54.4214           1.326589           1.326589           4.504645
    6    5        12.800000       -61.9181           1.480879           1.480879           4.560053
    3    2         2.500000        -9.0892           1.822958           1.822958           4.616141
 
 
  C                    hydrogenic:
 
  List of hydrogenic basis orbitals: 
    n    l      effective z      eigenvalue [eV]  inner max. [A]     outer max. [A]     outer radius [A]   
    2    1         1.700000        -9.7616           1.230570           1.230570           4.607917
    3    2         6.000000       -54.4224           0.792453           0.792453           3.883070
    2    0         4.900000       -81.6679           0.082559           0.562749           3.078220
 
 
  H                    hydrogenic:
 
  List of hydrogenic basis orbitals: 
    n    l      effective z      eigenvalue [eV]  inner max. [A]     outer max. [A]     outer radius [A]   
    2    0         2.100000       -14.9728           0.193243           1.317208           4.583499
    2    1         3.500000       -41.6669           0.602369           0.602369           3.723403
 
 
  N                    hydrogenic:
 
  List of hydrogenic basis orbitals: 
    n    l      effective z      eigenvalue [eV]  inner max. [A]     outer max. [A]     outer radius [A]   
    2    1         1.800000       -10.9749           1.177451           1.177451           4.573712
    3    2         6.800000       -69.9026           0.704619           0.704619           3.538137
    3    0         5.800000       -50.8545           0.067388           1.191934           4.250239
 

  Adding cutoff potential to free-atom effective potential.
  Creating atomic-like basis functions for current effective potential.

  Species Au                  :

  List of atomic basis orbitals and eigenvalues:
    n    l      energy [Ha]    energy [eV]    outer radius [A]
    1    0     -3256.431199    -88612.0015       0.120816
    2    0      -533.654865    -14521.4877       0.313506
    3    0      -124.232088     -3380.5271       0.652830
    4    0       -26.843821      -730.4575       1.359424
    5    0        -3.974251      -108.1449       3.318406
    6    0        -0.207180        -5.6377       4.560053
    2    1      -460.384091    -12527.6885       0.329217
    3    1      -103.448928     -2814.9886       0.702515
    4    1       -20.075789      -546.2900       1.536198
    5    1        -2.189737       -59.5858       4.035315
    3    2       -81.364825     -2214.0495       0.755981
    4    2       -11.975168      -325.8609       1.868078
    5    2        -0.249072        -6.7776       4.504645
    4    3        -2.985533       -81.2405       3.198908


  Species C                   :

  List of atomic basis orbitals and eigenvalues:
    n    l      energy [Ha]    energy [eV]    outer radius [A]
    1    0       -10.046810      -273.3876       1.934409
    2    0        -0.503128       -13.6908       4.496620
    2    1        -0.191849        -5.2205       4.551928


  Species H                   :

  List of atomic basis orbitals and eigenvalues:
    n    l      energy [Ha]    energy [eV]    outer radius [A]
    1    0        -0.237593        -6.4652       4.527807


  Species N                   :

  List of atomic basis orbitals and eigenvalues:
    n    l      energy [Ha]    energy [eV]    outer radius [A]
    1    0       -14.143973      -384.8771       1.637919
    2    0        -0.682008       -18.5584       4.463241
    2    1        -0.259605        -7.0642       4.518138

  Assembling full basis from fixed parts.
  | Species Au :   atomic orbital   1 s accepted.
  | Species Au :   atomic orbital   2 s accepted.
  | Species Au :   atomic orbital   3 s accepted.
  | Species Au :   atomic orbital   4 s accepted.
  | Species Au :   atomic orbital   5 s accepted.
  | Species Au :    ionic orbital   6 s accepted.
  | Species Au :   atomic orbital   6 s accepted.
  | Species Au :   atomic orbital   2 p accepted.
  | Species Au :   atomic orbital   3 p accepted.
  | Species Au :   atomic orbital   4 p accepted.
  | Species Au :   atomic orbital   5 p accepted.
  | Species Au :    ionic orbital   6 p accepted.
  | Species Au :   atomic orbital   3 d accepted.
  | Species Au :   atomic orbital   4 d accepted.
  | Species Au :   atomic orbital   5 d accepted.
  | Species Au :    hydro orbital   3 d accepted.
  | Species Au :   atomic orbital   4 f accepted.
  | Species Au :    hydro orbital   4 f accepted.
  | Species Au :    hydro orbital   5 g accepted.
  | Species Au :    hydro orbital   6 h accepted.
  | Species C :   atomic orbital   1 s accepted.
  | Species C :    hydro orbital   2 s accepted.
  | Species C :   atomic orbital   2 s accepted.
  | Species C :   atomic orbital   2 p accepted.
  | Species C :    hydro orbital   2 p accepted.
  | Species C :    hydro orbital   3 d accepted.
  | Species H :   atomic orbital   1 s accepted.
  | Species H :    hydro orbital   2 s accepted.
  | Species H :    hydro orbital   2 p accepted.
  | Species N :   atomic orbital   1 s accepted.
  | Species N :    hydro orbital   3 s accepted.
  | Species N :   atomic orbital   2 s accepted.
  | Species N :   atomic orbital   2 p accepted.
  | Species N :    hydro orbital   2 p accepted.
  | Species N :    hydro orbital   3 d accepted.
 
  Basis size parameters after reduction:
  | Total number of radial functions:       35
  | Total number of basis functions :     2893
 
  Per-task memory consumption for arrays in subroutine allocate_ext:
  |          13.401152MB.
  Testing on-site integration grid accuracy.
  |  Species  Function  <phi|h_atom|phi> (log., in eV)  <phi|h_atom|phi> (rad., in eV)
           1        1             -88612.0014632775             -88611.6712034180 ***
           1        2             -14521.4877182964             -14521.4813999840
           1        3              -3380.5271184873              -3380.5267747403
           1        4               -730.4575387750               -730.4575126103
           1        5               -108.1448599487               -108.1448564257
           1        6                 -5.0942970264                 -5.0944290505
           1        7                  6.1115134725                  6.0788143786 ***
           1        8             -12527.6885190594             -12527.6885173588
           1        9              -2814.9885638658              -2814.9885482953
           1       10               -546.2900141357               -546.2900083742
           1       11                -59.5857773529                -59.5857755927
           1       12                  0.8801786309                  0.8779179090
           1       13              -2214.0495316492              -2214.0495265682
           1       14               -325.8609015357               -325.8608990336
           1       15                 -6.7779523923                 -6.7780549541
           1       16                  6.8774732691                  6.8534371069
           1       17                -81.2404736787                -81.2404731538
           1       18                 21.6950885255                 21.6950713539
           1       19                 37.5256805321                 37.5255763704
           1       20                 50.1803128763                 50.1800983087
           2       21               -273.3876219248               -273.3875919908
           2       22                -10.7204647119                -10.7200987605
           2       23                 17.5782951162                 17.5752355731
           2       24                 -5.2222267983                 -5.2237454471
           2       25                  8.6866956284                  8.6634852736
           2       26                 27.4984676161                 27.4985577266
           3       27                 -6.4664147733                 -6.4652229287
           3       28                 13.7099062243                 13.7158503352
           3       29                 25.2661739479                 25.2663166526
           4       30               -384.8770852117               -384.8770238677
           4       31                 12.5754985569                 12.5755902267
           4       32                -15.7673946342                -15.7673131151
           4       33                 -7.0647024646                 -7.0651952863
           4       34                  8.8117910309                  8.7928686443
           4       35                 35.9641313272                 35.9643080891
 * Note: Onsite integrals marked "***" above are less accurate than
 * onsite_accuracy_threshold =    0.03000 eV. Usually, this is harmless.
 * However, one integral did have a negative value. This integral could be important.
 * When in doubt, tighten the "radial" and/or "radial_multiplier" flags to check.

  Preparing densities etc. for the partition functions (integrals / Hartree potential).

  Preparations completed.
  max(cpu_time)          :      0.495 s.
  Wall clock time (cpu1) :      0.494 s.
------------------------------------------------------------

------------------------------------------------------------
          Begin self-consistency loop: Initialization.

          Date     :  20221010, Time     :  160357.761
------------------------------------------------------------

  Initializing index lists of integration centers etc. from given atomic structure:
  | Number of centers in hartree potential         :        53
  | Number of centers in hartree multipole         :        53
  | Number of centers in electron density summation:        53
  | Number of centers in basis integrals           :        53
  | Number of centers in integrals                 :        53
  | Number of centers in hamiltonian               :        53
  Initializing relaxation algorithms.
  * Using 16 tasks for Scalapack Eigenvalue solver.
  Detailed listing of tasks and assigned k-points:
  (for non-periodic systems, the "k-point" denotes an internal label only)
   Task     0 k-point     1 on scc-pf5
   Task     1 k-point     1 on scc-pf5
   Task     2 k-point     1 on scc-pf5
   Task     3 k-point     1 on scc-pf5
   Task     4 k-point     1 on scc-pf5
   Task     5 k-point     1 on scc-pf5
   Task     6 k-point     1 on scc-pf5
   Task     7 k-point     1 on scc-pf5
   Task     8 k-point     1 on scc-pf5
   Task     9 k-point     1 on scc-pf5
   Task    10 k-point     1 on scc-pf5
   Task    11 k-point     1 on scc-pf5
   Task    12 k-point     1 on scc-pf5
   Task    13 k-point     1 on scc-pf5
   Task    14 k-point     1 on scc-pf5
   Task    15 k-point     1 on scc-pf5
  Tasks:    16 split into      4 X      4 BLACS grid
  Calculating block size based on n_basis =         2893  max_nprow =            4  max_npcol =            4
  ScaLAPACK block size set to:           16
  Allocating        4.298 MB for ovlp
  Allocating        4.298 MB for ham
  Allocating        4.298 MB for eigenvec
  Required Scalapack workspace - INTEGER:            1  REAL:             1
  Partitioning the integration grid into batches with parallel hashing+maxmin method.
  | Number of batches:     3653
  | Maximal batch size:     193
  | Minimal batch size:      61
  | Average batch size:     114.635
  | Standard deviation of batch sizes:      35.473

  Integration load balanced across    16 MPI tasks.
  Work distribution over tasks is as follows:
  Task     0 has      26127 integration points.
  Task     1 has      26153 integration points.
  Task     2 has      26175 integration points.
  Task     3 has      26197 integration points.
  Task     4 has      26173 integration points.
  Task     5 has      26181 integration points.
  Task     6 has      26178 integration points.
  Task     7 has      26209 integration points.
  Task     8 has      26171 integration points.
  Task     9 has      26155 integration points.
  Task    10 has      26181 integration points.
  Task    11 has      26223 integration points.
  Task    12 has      26198 integration points.
  Task    13 has      26127 integration points.
  Task    14 has      26209 integration points.
  Task    15 has      26105 integration points.
  Initializing partition tables, free-atom densities, potentials, etc. across the integration grid (initialize_grid_storage).
  | initialize_grid_storage: Actual outermost partition radius vs. multipole_radius_free
  | (-- VB: in principle, multipole_radius_free should be larger, hence this output)
  | Species        1: Confinement radius =              4.999999999999999 AA, multipole_radius_free =              5.028561921230412 AA.
  | Species        1: outer_partition_radius set to              5.028561921230412 AA .
  | Species        2: Confinement radius =              4.999999999999999 AA, multipole_radius_free =              5.019602836301480 AA.
  | Species        2: outer_partition_radius set to              5.019602836301480 AA .
  | Species        3: Confinement radius =              4.999999999999999 AA, multipole_radius_free =              5.054417573612229 AA.
  | Species        3: outer_partition_radius set to              5.054417573612229 AA .
  | Species        4: Confinement radius =              4.999999999999999 AA, multipole_radius_free =              5.043624274424571 AA.
  | Species        4: outer_partition_radius set to              5.043624274424571 AA .
  | Original list of interatomic distances with          53 x         53 entries is created.
  | Net number of integration points:   418762
  | of which are non-zero points    :   383323
  Renormalizing the initial density to the exact electron count on the 3D integration grid.
  | Initial density: Formal number of electrons (from input files) :    2904.0000000000
  | Integrated number of electrons on 3D grid     :    2903.9998725778
  | Charge integration error                      :      -0.0001274222
  | Normalization factor for density and gradient :       1.0000000439
  Obtaining max. number of non-zero basis functions in each batch (get_n_compute_maxes).
  | Maximal number of non-zero basis functions:      941 in task     0
  | Maximal number of non-zero basis functions:      976 in task     1
  | Maximal number of non-zero basis functions:      956 in task     2
  | Maximal number of non-zero basis functions:      932 in task     3
  | Maximal number of non-zero basis functions:      951 in task     4
  | Maximal number of non-zero basis functions:      937 in task     5
  | Maximal number of non-zero basis functions:      955 in task     6
  | Maximal number of non-zero basis functions:      941 in task     7
  | Maximal number of non-zero basis functions:      953 in task     8
  | Maximal number of non-zero basis functions:      948 in task     9
  | Maximal number of non-zero basis functions:      948 in task    10
  | Maximal number of non-zero basis functions:      943 in task    11
  | Maximal number of non-zero basis functions:      967 in task    12
  | Maximal number of non-zero basis functions:      934 in task    13
  | Maximal number of non-zero basis functions:      950 in task    14
  | Maximal number of non-zero basis functions:      953 in task    15
  Selecting the method for density update.
  Density matrix based charge density update selected.
  Scalapack and density-matrix based density update requested:
  Switching to packed matrix format "index" by default.
  Hamiltonian matrix size:
  | Size of matrix non-packed:               4186171
  | Size of matrix packed:         1730808
  Allocating       41.983 MB for KS_eigenvector
  Integrating Hamiltonian matrix: batch-based integration.
  Time summed over all CPUs for integration: real work       22.558 s, elapsed       23.798 s
  Integrating overlap matrix.
  Time summed over all CPUs for integration: real work       13.451 s, elapsed       14.113 s
  Decreasing sparse matrix size:
   Tolerance:  9.999999824516700E-014
   Hamiltonian matrix
  | Array has  1633831 nonzero elements out of  1730808 elements
  | Sparsity factor is 0.056
   Overlap matrix
  | Array has  1582814 nonzero elements out of  1730808 elements
  | Sparsity factor is 0.086
  New size of hamiltonian matrix:     1635882
  Deallocating overlap matrix.

  Updating Kohn-Sham eigenvalues and eigenvectors using ELSI and the ELPA eigensolver.
  ELPA settings:
  | ELPA solver          2
  | Time full => band           :     0.269 s
  | Time band => tridiagonal    :     0.099 s
  | Time solve tridiagonal      :     0.136 s
  Overlap matrix is nonsingular
  | Lowest eigenvalue of overlap  :  0.15E-02
  | Highest eigenvalue of overlap :  0.66E+01
  Finished singularity check of overlap matrix
  | Time :     0.508 s
  Finished Cholesky decomposition
  | Time :     0.159 s
  Finished transformation to standard eigenproblem
  | Time :     0.188 s
  Starting ELPA eigensolver
  | Time full => band           :     0.260 s
  | Time band => tridiagonal    :     0.098 s
  | Time solve tridiagonal      :     0.107 s
  | Time ev tridiagonal => band :     0.267 s
  | Time ev band => full        :     0.182 s
  Finished solving standard eigenproblem
  | Time :     0.915 s
  Finished back-transformation of eigenvectors
  | Time :     0.102 s

  Obtaining occupation numbers and chemical potential using ELSI.
  | Chemical potential (Fermi level):    -4.61121790eV
  Writing Kohn-Sham eigenvalues.

  State    Occupation    Eigenvalue [Ha]    Eigenvalue [eV]
      1       2.00000       -3256.415463       -88611.57325
      2       2.00000       -3256.415446       -88611.57279
      3       2.00000       -3256.415300       -88611.56882
      4       2.00000       -3256.415262       -88611.56779
      5       2.00000       -3256.415143       -88611.56455
      6       2.00000       -3256.415128       -88611.56413
      7       2.00000       -3256.414749       -88611.55383
      8       2.00000       -3256.414749       -88611.55383
      9       2.00000       -3256.414705       -88611.55263
     10       2.00000       -3256.414560       -88611.54869
     11       2.00000       -3256.414530       -88611.54787
     12       2.00000       -3256.414506       -88611.54722
     13       2.00000       -3256.414498       -88611.54700
     14       2.00000       -3256.414429       -88611.54513
     15       2.00000       -3256.414256       -88611.54042
     16       2.00000       -3256.414121       -88611.53675
     17       2.00000       -3256.413673       -88611.52454
     18       2.00000       -3256.413650       -88611.52393
     19       2.00000       -3256.413523       -88611.52048
     20       2.00000       -3256.413499       -88611.51982
     21       2.00000       -3256.413499       -88611.51982
     22       2.00000       -3256.413469       -88611.51900
     23       2.00000       -3256.413467       -88611.51893
     24       2.00000       -3256.413451       -88611.51851
     25       2.00000       -3256.413083       -88611.50848
     26       2.00000       -3256.413083       -88611.50848
     27       2.00000       -3256.413083       -88611.50848
     28       2.00000       -3256.413083       -88611.50848
     29       2.00000       -3256.413083       -88611.50848
     30       2.00000       -3256.413083       -88611.50848
     31       2.00000       -3256.413083       -88611.50848
     32       2.00000       -3256.413083       -88611.50848
     33       2.00000       -3256.413083       -88611.50848
     34       2.00000       -3256.413083       -88611.50848
     35       2.00000       -3256.412249       -88611.48581
     36       2.00000       -3256.412249       -88611.48581
     37       2.00000        -533.656755       -14521.53916
     38       2.00000        -533.656738       -14521.53870
     39       2.00000        -533.656591       -14521.53470
     40       2.00000        -533.656554       -14521.53367
     41       2.00000        -533.656434       -14521.53042
     42       2.00000        -533.656418       -14521.52999
     43       2.00000        -533.656039       -14521.51966
     44       2.00000        -533.656039       -14521.51966
     45       2.00000        -533.655993       -14521.51841
     46       2.00000        -533.655848       -14521.51447
     47       2.00000        -533.655817       -14521.51362
     48       2.00000        -533.655794       -14521.51300
     49       2.00000        -533.655786       -14521.51277
     50       2.00000        -533.655717       -14521.51090
     51       2.00000        -533.655543       -14521.50618
     52       2.00000        -533.655408       -14521.50250
     53       2.00000        -533.654958       -14521.49025
     54       2.00000        -533.654936       -14521.48964
     55       2.00000        -533.654808       -14521.48616
     56       2.00000        -533.654784       -14521.48551
     57       2.00000        -533.654784       -14521.48551
     58       2.00000        -533.654753       -14521.48468
     59       2.00000        -533.654751       -14521.48461
     60       2.00000        -533.654735       -14521.48419
     61       2.00000        -533.654366       -14521.47413
     62       2.00000        -533.654366       -14521.47413
     63       2.00000        -533.654366       -14521.47413
     64       2.00000        -533.654366       -14521.47413
     65       2.00000        -533.654366       -14521.47413
     66       2.00000        -533.654366       -14521.47413
     67       2.00000        -533.654366       -14521.47413
     68       2.00000        -533.654366       -14521.47413
     69       2.00000        -533.654366       -14521.47413
     70       2.00000        -533.654366       -14521.47413
     71       2.00000        -533.653529       -14521.45137
     72       2.00000        -533.653529       -14521.45137
     73       2.00000        -460.388544       -12527.80968
     74       2.00000        -460.388543       -12527.80965
     75       2.00000        -460.388540       -12527.80958
     76       2.00000        -460.388527       -12527.80922
     77       2.00000        -460.388526       -12527.80919
     78       2.00000        -460.388523       -12527.80912
     79       2.00000        -460.388380       -12527.80523
     80       2.00000        -460.388379       -12527.80521
     81       2.00000        -460.388376       -12527.80511
     82       2.00000        -460.388342       -12527.80420
     83       2.00000        -460.388342       -12527.80419
     84       2.00000        -460.388338       -12527.80408
     85       2.00000        -460.388223       -12527.80095
     86       2.00000        -460.388222       -12527.80093
     87       2.00000        -460.388218       -12527.80083
     88       2.00000        -460.388207       -12527.80052
     89       2.00000        -460.388207       -12527.80051
     90       2.00000        -460.388203       -12527.80041
     91       2.00000        -460.387827       -12527.79018
     92       2.00000        -460.387827       -12527.79018
     93       2.00000        -460.387827       -12527.79018
     94       2.00000        -460.387827       -12527.79018
     95       2.00000        -460.387824       -12527.79009
     96       2.00000        -460.387824       -12527.79009
     97       2.00000        -460.387786       -12527.78908
     98       2.00000        -460.387778       -12527.78884
     99       2.00000        -460.387777       -12527.78881
    100       2.00000        -460.387640       -12527.78509
    101       2.00000        -460.387634       -12527.78494
    102       2.00000        -460.387632       -12527.78488
    103       2.00000        -460.387611       -12527.78429
    104       2.00000        -460.387602       -12527.78405
    105       2.00000        -460.387601       -12527.78404
    106       2.00000        -460.387585       -12527.78360
    107       2.00000        -460.387581       -12527.78348
    108       2.00000        -460.387578       -12527.78341
    109       2.00000        -460.387577       -12527.78338
    110       2.00000        -460.387572       -12527.78325
    111       2.00000        -460.387570       -12527.78319
    112       2.00000        -460.387509       -12527.78152
    113       2.00000        -460.387503       -12527.78137
    114       2.00000        -460.387501       -12527.78131
    115       2.00000        -460.387335       -12527.77679
    116       2.00000        -460.387330       -12527.77666
    117       2.00000        -460.387328       -12527.77660
    118       2.00000        -460.387199       -12527.77309
    119       2.00000        -460.387195       -12527.77299
    120       2.00000        -460.387193       -12527.77293
    121       2.00000        -460.386746       -12527.76078
    122       2.00000        -460.386746       -12527.76076
    123       2.00000        -460.386746       -12527.76076
    124       2.00000        -460.386724       -12527.76016
    125       2.00000        -460.386723       -12527.76015
    126       2.00000        -460.386723       -12527.76015
    127       2.00000        -460.386598       -12527.75673
    128       2.00000        -460.386596       -12527.75668
    129       2.00000        -460.386594       -12527.75662
    130       2.00000        -460.386572       -12527.75603
    131       2.00000        -460.386572       -12527.75603
    132       2.00000        -460.386572       -12527.75603
    133       2.00000        -460.386572       -12527.75603
    134       2.00000        -460.386572       -12527.75603
    135       2.00000        -460.386572       -12527.75603
    136       2.00000        -460.386543       -12527.75525
    137       2.00000        -460.386542       -12527.75520
    138       2.00000        -460.386541       -12527.75517
    139       2.00000        -460.386540       -12527.75515
    140       2.00000        -460.386539       -12527.75513
    141       2.00000        -460.386537       -12527.75507
    142       2.00000        -460.386525       -12527.75475
    143       2.00000        -460.386524       -12527.75471
    144       2.00000        -460.386521       -12527.75465
    145       2.00000        -460.386155       -12527.74467
    146       2.00000        -460.386155       -12527.74467
    147       2.00000        -460.386155       -12527.74467
    148       2.00000        -460.386155       -12527.74467
    149       2.00000        -460.386155       -12527.74467
    150       2.00000        -460.386155       -12527.74467
    151       2.00000        -460.386155       -12527.74467
    152       2.00000        -460.386155       -12527.74467
    153       2.00000        -460.386155       -12527.74467
    154       2.00000        -460.386155       -12527.74467
    155       2.00000        -460.386155       -12527.74467
    156       2.00000        -460.386155       -12527.74467
    157       2.00000        -460.386155       -12527.74467
    158       2.00000        -460.386155       -12527.74467
    159       2.00000        -460.386155       -12527.74467
    160       2.00000        -460.386155       -12527.74467
    161       2.00000        -460.386155       -12527.74467
    162       2.00000        -460.386155       -12527.74467
    163       2.00000        -460.386155       -12527.74467
    164       2.00000        -460.386155       -12527.74467
    165       2.00000        -460.386152       -12527.74461
    166       2.00000        -460.386152       -12527.74461
    167       2.00000        -460.386152       -12527.74461
    168       2.00000        -460.386152       -12527.74461
    169       2.00000        -460.386152       -12527.74461
    170       2.00000        -460.386152       -12527.74461
    171       2.00000        -460.386152       -12527.74461
    172       2.00000        -460.386152       -12527.74461
    173       2.00000        -460.386152       -12527.74461
    174       2.00000        -460.386152       -12527.74461
    175       2.00000        -460.385320       -12527.72196
    176       2.00000        -460.385320       -12527.72196
    177       2.00000        -460.385317       -12527.72187
    178       2.00000        -460.385317       -12527.72187
    179       2.00000        -460.385317       -12527.72187
    180       2.00000        -460.385317       -12527.72187
    181       2.00000        -124.236099        -3380.63625
    182       2.00000        -124.236082        -3380.63579
    183       2.00000        -124.235929        -3380.63165
    184       2.00000        -124.235891        -3380.63060
    185       2.00000        -124.235769        -3380.62729
    186       2.00000        -124.235754        -3380.62686
    187       2.00000        -124.235367        -3380.61635
    188       2.00000        -124.235367        -3380.61635
    189       2.00000        -124.235308        -3380.61473
    190       2.00000        -124.235165        -3380.61084
    191       2.00000        -124.235129        -3380.60986
    192       2.00000        -124.235110        -3380.60934
    193       2.00000        -124.235102        -3380.60912
    194       2.00000        -124.235031        -3380.60720
    195       2.00000        -124.234855        -3380.60240
    196       2.00000        -124.234718        -3380.59867
    197       2.00000        -124.234260        -3380.58622
    198       2.00000        -124.234237        -3380.58559
    199       2.00000        -124.234104        -3380.58198
    200       2.00000        -124.234083        -3380.58139
    201       2.00000        -124.234083        -3380.58139
    202       2.00000        -124.234049        -3380.58048
    203       2.00000        -124.234046        -3380.58040
    204       2.00000        -124.234031        -3380.57997
    205       2.00000        -124.233655        -3380.56974
    206       2.00000        -124.233655        -3380.56974
    207       2.00000        -124.233655        -3380.56974
    208       2.00000        -124.233655        -3380.56974
    209       2.00000        -124.233655        -3380.56974
    210       2.00000        -124.233655        -3380.56974
    211       2.00000        -124.233655        -3380.56974
    212       2.00000        -124.233655        -3380.56974
    213       2.00000        -124.233655        -3380.56974
    214       2.00000        -124.233655        -3380.56974
    215       2.00000        -124.232798        -3380.54644
    216       2.00000        -124.232798        -3380.54644
    217       2.00000        -103.453530        -2815.11377
    218       2.00000        -103.453522        -2815.11356
    219       2.00000        -103.453514        -2815.11333
    220       2.00000        -103.453503        -2815.11305
    221       2.00000        -103.453499        -2815.11295
    222       2.00000        -103.453483        -2815.11249
    223       2.00000        -103.453362        -2815.10922
    224       2.00000        -103.453356        -2815.10905
    225       2.00000        -103.453324        -2815.10818
    226       2.00000        -103.453323        -2815.10816
    227       2.00000        -103.453318        -2815.10801
    228       2.00000        -103.453286        -2815.10714
    229       2.00000        -103.453201        -2815.10482
    230       2.00000        -103.453196        -2815.10469
    231       2.00000        -103.453184        -2815.10437
    232       2.00000        -103.453180        -2815.10427
    233       2.00000        -103.453166        -2815.10387
    234       2.00000        -103.453150        -2815.10344
    235       2.00000        -103.452794        -2815.09374
    236       2.00000        -103.452794        -2815.09374
    237       2.00000        -103.452794        -2815.09374
    238       2.00000        -103.452794        -2815.09374
    239       2.00000        -103.452775        -2815.09325
    240       2.00000        -103.452767        -2815.09303
    241       2.00000        -103.452767        -2815.09303
    242       2.00000        -103.452704        -2815.09130
    243       2.00000        -103.452695        -2815.09107
    244       2.00000        -103.452618        -2815.08898
    245       2.00000        -103.452596        -2815.08836
    246       2.00000        -103.452573        -2815.08774
    247       2.00000        -103.452558        -2815.08733
    248       2.00000        -103.452554        -2815.08724
    249       2.00000        -103.452549        -2815.08710
    250       2.00000        -103.452523        -2815.08638
    251       2.00000        -103.452521        -2815.08633
    252       2.00000        -103.452519        -2815.08627
    253       2.00000        -103.452512        -2815.08609
    254       2.00000        -103.452502        -2815.08582
    255       2.00000        -103.452494        -2815.08560
    256       2.00000        -103.452483        -2815.08529
    257       2.00000        -103.452440        -2815.08412
    258       2.00000        -103.452422        -2815.08363
    259       2.00000        -103.452304        -2815.08042
    260       2.00000        -103.452265        -2815.07935
    261       2.00000        -103.452247        -2815.07887
    262       2.00000        -103.452162        -2815.07655
    263       2.00000        -103.452130        -2815.07568
    264       2.00000        -103.452112        -2815.07519
    265       2.00000        -103.451681        -2815.06346
    266       2.00000        -103.451675        -2815.06330
    267       2.00000        -103.451675        -2815.06330
    268       2.00000        -103.451657        -2815.06282
    269       2.00000        -103.451652        -2815.06268
    270       2.00000        -103.451652        -2815.06268
    271       2.00000        -103.451536        -2815.05952
    272       2.00000        -103.451522        -2815.05913
    273       2.00000        -103.451504        -2815.05866
    274       2.00000        -103.451499        -2815.05853
    275       2.00000        -103.451499        -2815.05853
    276       2.00000        -103.451499        -2815.05853
    277       2.00000        -103.451499        -2815.05853
    278       2.00000        -103.451499        -2815.05853
    279       2.00000        -103.451499        -2815.05853
    280       2.00000        -103.451480        -2815.05799
    281       2.00000        -103.451477        -2815.05792
    282       2.00000        -103.451467        -2815.05765
    283       2.00000        -103.451464        -2815.05757
    284       2.00000        -103.451461        -2815.05748
    285       2.00000        -103.451450        -2815.05717
    286       2.00000        -103.451449        -2815.05715
    287       2.00000        -103.451447        -2815.05710
    288       2.00000        -103.451431        -2815.05668
    289       2.00000        -103.451077        -2815.04702
    290       2.00000        -103.451077        -2815.04702
    291       2.00000        -103.451077        -2815.04702
    292       2.00000        -103.451077        -2815.04702
    293       2.00000        -103.451077        -2815.04702
    294       2.00000        -103.451077        -2815.04702
    295       2.00000        -103.451077        -2815.04702
    296       2.00000        -103.451077        -2815.04702
    297       2.00000        -103.451077        -2815.04702
    298       2.00000        -103.451077        -2815.04702
    299       2.00000        -103.451077        -2815.04702
    300       2.00000        -103.451077        -2815.04702
    301       2.00000        -103.451077        -2815.04702
    302       2.00000        -103.451077        -2815.04702
    303       2.00000        -103.451077        -2815.04702
    304       2.00000        -103.451077        -2815.04702
    305       2.00000        -103.451077        -2815.04702
    306       2.00000        -103.451077        -2815.04702
    307       2.00000        -103.451077        -2815.04702
    308       2.00000        -103.451077        -2815.04702
    309       2.00000        -103.451059        -2815.04655
    310       2.00000        -103.451059        -2815.04655
    311       2.00000        -103.451059        -2815.04655
    312       2.00000        -103.451059        -2815.04655
    313       2.00000        -103.451059        -2815.04655
    314       2.00000        -103.451059        -2815.04655
    315       2.00000        -103.451059        -2815.04655
    316       2.00000        -103.451059        -2815.04655
    317       2.00000        -103.451059        -2815.04655
    318       2.00000        -103.451059        -2815.04655
    319       2.00000        -103.450231        -2815.02402
    320       2.00000        -103.450231        -2815.02402
    321       2.00000        -103.450205        -2815.02331
    322       2.00000        -103.450205        -2815.02331
    323       2.00000        -103.450205        -2815.02331
    324       2.00000        -103.450205        -2815.02331
    325       2.00000         -81.369395        -2214.17390
    326       2.00000         -81.369395        -2214.17388
    327       2.00000         -81.369381        -2214.17353
    328       2.00000         -81.369378        -2214.17343
    329       2.00000         -81.369377        -2214.17341
    330       2.00000         -81.369377        -2214.17340
    331       2.00000         -81.369374        -2214.17331
    332       2.00000         -81.369365        -2214.17308
[...]
  | Density mixing                             :        0.013 s           0.013 s
  | Hartree multipole update                   :        0.009 s           0.009 s
  | Hartree multipole summation                :        1.449 s           1.449 s
  | Integration                                :        1.512 s           1.512 s
  | Solution of K.-S. eqns.                    :        1.353 s           1.353 s
  | Total energy evaluation                    :        0.003 s           0.004 s

  Partial memory accounting:
  | Current value for overall tracked memory usage on task 0  :          74.512 MB
  | Peak value for overall tracked memory usage on task 0     :         110.654 MB after allocating wave_pulay
  | Largest tracked array allocation on task 0 so far         :          41.983 MB  when allocating +KS_eigenvector
  Note:  These values currently only include a subset of arrays which are explicitly tracked.
  The "true" memory usage will be greater.
------------------------------------------------------------
  |------------------------------------------
  | Final ELSI Output
  |------------------------------------------
  | Number of basis functions :         2893
  | Number of electrons       :       2904.0
  | Number of spins           :            1
  | Number of k-points        :            1
  | Number of states          :         1814
  | Solver                    :         ELPA
  | Parallel mode             :   MULTI_PROC
  | Matrix format             :  BLACS_DENSE
  | Matrix sparsity           :        0.610
  |------------------------------------------
  | ELSI Project (c)  elsi-interchange.org
  |------------------------------------------

  Energy and forces in a compact form:
  | Total energy uncorrected      :         -0.192932646590675E+08 eV
  | Total energy corrected        :         -0.192932646590675E+08 eV  <-- do not rely on this value for anything but (periodic) metals
  | Electronic free energy        :         -0.192932646590675E+08 eV
  Total atomic forces (unitary forces were cleaned, then relaxation constraints were applied) [eV/Ang]:
  |   1          0.482134062654276E-02          0.327537399105690E-02          0.305143367598831E-03
  |   2         -0.698611634935832E-02         -0.946727122488706E-02         -0.339599279762862E-02
  |   3         -0.598521809232669E-02         -0.976583356960876E-02         -0.234518079434894E-02
  |   4          0.942129180714934E-02          0.104707969824596E-02          0.408121895681938E-02
  |   5          0.576959765331980E-02          0.937446612445427E-02         -0.585144268675510E-02
  |   6          0.275773921609923E-02          0.182678842696217E-02          0.134428537941254E-02
  |   7          0.701096943522815E-03         -0.477268929095740E-03         -0.628927955293514E-02
  |   8         -0.106881993491555E-02          0.731043048409638E-03         -0.250293824549482E-02
  |   9         -0.130971286533076E-02         -0.132643213099736E-02         -0.720357371366569E-03
  |  10          0.186826085003570E-03          0.882430409061003E-03         -0.352375723467057E-03
  |  11          0.207133458274994E-02         -0.332699304107051E-02         -0.140715995548699E-02
  |  12          0.407217542485943E-03          0.154369287613154E-02         -0.313393055965048E-02
  |  13         -0.944890233680547E-03         -0.650038832248820E-04         -0.245777134816906E-04
  |  14         -0.408255166203994E-02         -0.255566444422383E-02         -0.350853894965294E-02
  |  15          0.200110285019451E-02          0.219294612432000E-02         -0.110289894786382E-02
  |  16          0.102496994348450E-02          0.519910269638675E-02          0.263761103608666E-02
  |  17          0.592849007840974E-02          0.327883441027600E-02         -0.187434718516097E-02
  |  18          0.552611132413732E-03          0.255404444001042E-02         -0.144023414658618E-02
  |  19         -0.695612295265940E-03          0.163989954292399E-02         -0.323202838433784E-02
  |  20          0.772138353885577E-03          0.131570204529955E-03         -0.125264604552250E-02
  |  21         -0.233486536095637E-02         -0.163846054849130E-02          0.104537163888170E-02
  |  22          0.000000000000000E+00          0.000000000000000E+00          0.000000000000000E+00
  |  23          0.000000000000000E+00          0.000000000000000E+00          0.000000000000000E+00
  |  24          0.000000000000000E+00          0.000000000000000E+00          0.000000000000000E+00
  |  25          0.000000000000000E+00          0.000000000000000E+00          0.000000000000000E+00
  |  26          0.000000000000000E+00          0.000000000000000E+00          0.000000000000000E+00
  |  27          0.000000000000000E+00          0.000000000000000E+00          0.000000000000000E+00
  |  28          0.000000000000000E+00          0.000000000000000E+00          0.000000000000000E+00
  |  29          0.000000000000000E+00          0.000000000000000E+00          0.000000000000000E+00
  |  30          0.000000000000000E+00          0.000000000000000E+00          0.000000000000000E+00
  |  31          0.000000000000000E+00          0.000000000000000E+00          0.000000000000000E+00
  |  32          0.000000000000000E+00          0.000000000000000E+00          0.000000000000000E+00
  |  33          0.000000000000000E+00          0.000000000000000E+00          0.000000000000000E+00
  |  34          0.000000000000000E+00          0.000000000000000E+00          0.000000000000000E+00
  |  35          0.000000000000000E+00          0.000000000000000E+00          0.000000000000000E+00
  |  36         -0.354846913749510E-03         -0.430110428189478E-02          0.378553492508082E-03
  |  37          0.751577249116293E-03         -0.729919565792436E-03          0.266510954354973E-02
  |  38          0.241694883958878E-03          0.269537770478245E-03         -0.661483640921126E-03
  |  39         -0.142450861608374E-02          0.334052147511182E-03          0.460674617523299E-04
  |  40          0.000000000000000E+00          0.000000000000000E+00          0.000000000000000E+00
  |  41          0.000000000000000E+00          0.000000000000000E+00          0.000000000000000E+00
  |  42          0.000000000000000E+00          0.000000000000000E+00          0.000000000000000E+00
  |  43          0.000000000000000E+00          0.000000000000000E+00          0.000000000000000E+00
  |  44          0.000000000000000E+00          0.000000000000000E+00          0.000000000000000E+00
  |  45          0.000000000000000E+00          0.000000000000000E+00          0.000000000000000E+00
  |  46          0.000000000000000E+00          0.000000000000000E+00          0.000000000000000E+00
  |  47          0.000000000000000E+00          0.000000000000000E+00          0.000000000000000E+00
  |  48          0.000000000000000E+00          0.000000000000000E+00          0.000000000000000E+00
  |  49          0.000000000000000E+00          0.000000000000000E+00          0.000000000000000E+00
  |  50          0.000000000000000E+00          0.000000000000000E+00          0.000000000000000E+00
  |  51          0.000000000000000E+00          0.000000000000000E+00          0.000000000000000E+00
  |  52          0.000000000000000E+00          0.000000000000000E+00          0.000000000000000E+00
  |  53          0.000000000000000E+00          0.000000000000000E+00          0.000000000000000E+00

  ------------------------------------ 
  Start decomposition of the XC Energy 
  ------------------------------------ 
  X and C from original XC functional choice 
  Hartree-Fock Energy :          0.000000000 Ha              0.000000000 eV
  X Energy            :     -13119.184332483 Ha        -356991.169197570 eV
  C Energy            :       -176.447634283 Ha          -4801.384420599 eV
  Total XC Energy     :     -13295.631966766 Ha        -361792.553618170 eV
  ------------------------------------ 
  LDA X and C from self-consistent density 
  X Energy LDA        :     -12590.170789986 Ha        -342595.978286989 eV
  C Energy LDA        :       -301.765163847 Ha          -8211.447902143 eV
  ------------------------------------ 
  End decomposition of the XC Energy 
  ------------------------------------ 

------------------------------------------------------------
  Relaxation / MD: End force evaluation.       :  max(cpu_time)    wall_clock(cpu1)
  | Time for this force evaluation             :      238.547 s         242.838 s

------------------------------------------------------------
  Geometry optimization: Attempting to predict improved coordinates.

  Net remaining forces (excluding translations, rotations) in present geometry:
  Maximum force component is  0.976583E-02 eV/A.
  Present geometry is converged.

------------------------------------------------------------
  Final atomic structure:
                         x [A]             y [A]             z [A]
            atom         0.87428620        2.18753104        0.76451027  N
            atom        -0.05188613        2.00793947       -0.17497867  C
            atom         0.92160221        1.02653481        1.52490553  C
            atom        -0.00373245        0.13813292        1.02437887  C
            atom        -0.60402674        0.77481974       -0.04466561  N
            atom        -0.32986665        2.72748192       -0.93730308  H
            atom        -0.27310742       -0.86549394        1.33268348  H
            atom         1.83471205        0.86577274        2.69380957  C
            atom         2.87074258        1.08363789        2.38359795  H
            atom         1.80528358       -0.18221652        3.03298111  H
            atom         1.44486631        1.77378072        3.86633960  C
            atom         1.60188572        2.83232466        3.59537922  H
            atom         0.38296921        1.63560613        4.11148649  H
            atom         2.23086973        1.41165012        5.07586643  N
            atom         3.23197867        1.54589705        4.89957757  H
            atom         1.99056461        2.03952570        5.84807323  H
            atom        -1.32884626        0.38598530       -0.64123020  H
            atom         1.89879541       -0.69292892        5.81461743  Au
            atom         1.33242294       -3.24332214        4.96068406  Au
            atom         3.60540817       -2.64753740        6.72479967  Au
            atom         0.85971141       -2.25697150        7.72731683  Au
            atom         0.70625910       -5.89253249        4.29294961  Au
            atom         2.96257454       -5.26958355        5.97723972  Au
            atom         5.21888997       -4.64663462        7.66152983  Au
            atom         0.27920868       -4.90510287        6.96848105  Au
            atom         2.53552412       -4.28215394        8.65277117  Au
            atom        -0.14784174       -3.91767325        9.64401252  Au
            atom         2.35399702       -8.01523312        5.33935280  Au
            atom         4.61031245       -7.39228419        7.02364291  Au
            atom        -0.32936883       -7.65075244        6.33059413  Au
            atom         1.92694660       -7.02780351        8.01488425  Au
            atom         4.18326203       -6.40485457        9.69917436  Au
            atom        -0.75641925       -6.66332282        9.00612559  Au
            atom         1.49989617       -6.04037389       10.69041570  Au
            atom        -1.97710674       -5.52805181        5.28419094  Au
            atom         1.99250801        4.06107838        0.93650839  Au
            atom         3.59297735        6.12653511        1.51280807  Au
            atom         3.43980454        5.03573576       -1.20149619  Au
            atom         1.06176265        6.41751156       -0.05151411  Au
            atom         5.15523665        8.41218520        2.00547495  Au
            atom         5.00504716        7.26102101       -0.63424511  Au
            atom         4.85485767        6.10985681       -3.27396517  Au
            atom         2.71593711        8.61472738        0.48079393  Au
            atom         2.56574761        7.46356319       -2.15892613  Au
            atom         0.27663755        8.81726957       -1.04388710  Au
            atom         6.61684530        9.60756094       -0.17412017  Au
            atom         6.46665581        8.45639674       -2.81384022  Au
            atom         4.32773525       10.96126731        0.94091887  Au
            atom         4.17754575        9.81010312       -1.69880119  Au
            atom         4.02735626        8.65893892       -4.33852125  Au
            atom         1.88843570       11.16380950       -0.58376216  Au
            atom         1.73824620       10.01264530       -3.22348222  Au
            atom         2.86612660        9.76589158        3.12051398  Au
------------------------------------------------------------

------------------------------------------------------------------------------
  Final output of selected total energy values:

  The following output summarizes some interesting total energy values
  at the end of a run (AFTER all relaxation, molecular dynamics, etc.).

  | Total energy of the DFT / Hartree-Fock s.c.f. calculation      :      -19293264.659067508 eV
  | Final zero-broadening corrected energy (caution - metals only) :      -19293264.659067508 eV
  | For reference only, the value of 1 Hartree used in FHI-aims is :             27.211384500 eV

  Before relying on these values, please be sure to understand exactly which
  total energy value is referred to by a given number. Different objects may
  all carry the same name 'total energy'. Definitions:

  Total energy of the DFT / Hartree-Fock s.c.f. calculation:
  | Note that this energy does not include ANY quantities calculated after the
  | s.c.f. cycle, in particular not ANY RPA, MP2, etc. many-body perturbation terms.

  Final zero-broadening corrected energy:
  | For metallic systems only, a broadening of the occupation numbers at the Fermi
  | level can be extrapolated back to zero broadening by an electron-gas inspired
  | formula. For all systems that are not real metals, this value can be
  | meaningless and should be avoided.

------------------------------------------------------------------------------
  Methods described in the following list of references were used in this FHI-aims run.
  If you publish the results, please make sure to cite these reference if they apply.
  FHI-aims is an academic code, and for our developers (often, Ph.D. students
  and postdocs), scientific credit in the community is essential.
  Thank you for helping us!

  For any use of FHI-aims, please cite:

    Volker Blum, Ralf Gehrke, Felix Hanke, Paula Havu, Ville Havu,
    Xinguo Ren, Karsten Reuter, and Matthias Scheffler
    'Ab initio molecular simulations with numeric atom-centered orbitals'
    Computer Physics Communications 180, 2175-2196 (2009)
    http://dx.doi.org/10.1016/j.cpc.2009.06.022


  The scalable eigensolver library ELPA was used in your run.
  ELPA is essential especially for large systems on hundreds or thousands of CPUs.
  For ELPA, please cite:

    Andreas Marek, Volker Blum, Rainer Johanni, Ville Havu, Bruno Lang,
    Thomas Auckenthaler, Alexander Heinecke, Hans-Joachim Bungartz, and Hermann Lederer,
    'The ELPA Library - Scalable Parallel Eigenvalue Solutions
    for Electronic Structure Theory and Computational Science'
    The Journal of Physics: Condensed Matter 26, 213201 (2014).
    http://dx.doi.org/10.1088/0953-8984/26/21/213201


  The ELSI infrastructure was used in your run to solve the Kohn-Sham electronic structure.
  Please check out http://elsi-interchange.org to learn more.
  If scalability is important for your project, please acknowledge ELSI by citing:

    V. W-z. Yu, F. Corsetti, A. Garcia, W. P. Huhn, M. Jacquelin, W. Jia,
    B. Lange, L. Lin, J. Lu, W. Mi, A. Seifitokaldani, A. Vazquez-Mayagoitia,
    C. Yang, H. Yang, and V. Blum
    'ELSI: A unified software interface for Kohn-Sham electronic structure solvers'
    Computer Physics Communications 222, 267-285 (2018).
    http://dx.doi.org/10.1016/j.cpc.2017.09.007


  For the real-space grid partitioning and parallelization used in this calculation, please cite:

    Ville Havu, Volker Blum, Paula Havu, and Matthias Scheffler,
    'Efficient O(N) integration for all-electron electronic structure calculation'
    'using numerically tabulated basis functions'
    Journal of Computational Physics 228, 8367-8379 (2009).
    http://dx.doi.org/10.1016/j.jcp.2009.08.008

  Of course, there are many other important community references, e.g., those cited in the
  above references. Our list is limited to references that describe implementations in the
  FHI-aims code. The reason is purely practical (length of this list) - please credit others as well.

 * A warning was issued further up regarding the accuracy of onsite integrals.
   An integral with a negative eigenvalue was among the flagged integrals.
   In most standard situations, this warning is probably harmless.
   If needed, this can be verified by adjusting the radial_multiplier flag.

------------------------------------------------------------
          Leaving FHI-aims.
          Date     :  20221010, Time     :  160800.620

          Computational steps:
          | Number of self-consistency cycles          :           18
          | Number of SCF (re)initializations          :            1
          | Number of relaxation steps                 :            0

          Detailed time accounting                     :  max(cpu_time)    wall_clock(cpu1)
          | Total time                                 :      244.072 s         244.186 s
          | Preparation time                           :        0.495 s           0.494 s
          | Boundary condition initalization           :        0.000 s           0.001 s
          | Grid partitioning                          :        0.358 s           0.358 s
          | Preloading free-atom quantities on grid    :        0.005 s           0.005 s
          | Free-atom superposition energy             :        0.051 s           0.051 s
          | Total time for integrations                :       30.020 s          30.020 s
          | Total time for solution of K.-S. equations :       26.123 s          26.127 s
          | Total time for EV reorthonormalization     :        0.000 s           0.000 s
          | Total time for density & force components  :      177.780 s         177.783 s
          | Total time for mixing                      :        0.193 s           0.192 s
          | Total time for Hartree multipole update    :        0.154 s           0.156 s
          | Total time for Hartree multipole sum       :        7.524 s           7.526 s
          | Total time for total energy evaluation     :        0.007 s           0.009 s
          | Total time for scaled ZORA corrections     :        0.000 s           0.000 s

          Partial memory accounting:
          | Residual value for overall tracked memory usage across tasks :           0.000 MB (should be 0.000 MB)
          | Peak values for overall tracked memory usage (after allocating wave_pulay):
          |   Minimum:      109.879 MB (on task 14)
          |   Maximum:      112.043 MB (on task  2)
          |   Average:      110.685 MB
          | Largest tracked array allocation (+KS_eigenvector):
          |   Minimum:       41.983 MB (on task  1)
          |   Maximum:       41.983 MB (on task  1)
          |   Average:       41.983 MB
          Note:  These values currently only include a subset of arrays which are explicitly tracked.
          The "true" memory usage will be greater.

          Have a nice day.
------------------------------------------------------------
