  MPI-parallelism will be employed.
------------------------------------------------------------
          Invoking FHI-aims ...
          Version 171221_1
          Compiled on 2020/07/14 at 14:43:00 on host scc1.

          When using FHI-aims, please cite the following reference:

          Volker Blum, Ralf Gehrke, Felix Hanke, Paula Havu,
          Ville Havu, Xinguo Ren, Karsten Reuter, and Matthias Scheffler,
          'Ab Initio Molecular Simulations with Numeric Atom-Centered Orbitals',
          Computer Physics Communications 180, 2175-2196 (2009)

          For any questions about FHI-aims, please visit the aimsclub website
          with its forums and wiki. Contributions to both the forums and the
          wiki are warmly encouraged - they are for you, and everyone is welcome there.

------------------------------------------------------------



  Date     :  20221012, Time     :  114902.267
  Time zero on CPU 1             :   0.223846000000000E+00  s.
  Internal wall clock time zero  :           434807342.267  s.

  FHI-aims created a unique identifier for this run for later identification
  aims_uuid : 1C1E4E0E-CF4B-49A4-A5C6-A94C5E244F70

  Using       16 parallel tasks.
  Task        0 on host scc-mc4 reporting.
  Task        1 on host scc-mc4 reporting.
  Task        2 on host scc-mc4 reporting.
  Task        3 on host scc-mc4 reporting.
  Task        4 on host scc-mc4 reporting.
  Task        5 on host scc-mc4 reporting.
  Task        6 on host scc-mc4 reporting.
  Task        7 on host scc-mc4 reporting.
  Task        8 on host scc-mc4 reporting.
  Task        9 on host scc-mc4 reporting.
  Task       10 on host scc-mc4 reporting.
  Task       11 on host scc-mc4 reporting.
  Task       12 on host scc-mc4 reporting.
  Task       13 on host scc-mc4 reporting.
  Task       14 on host scc-mc4 reporting.
  Task       15 on host scc-mc4 reporting.

  Performing system and environment tests:
  | Environment variable OMP_NUM_THREADS correctly set to 1.
  | Stacksize not measured: no C compiler
  | Checking for scalapack...
  | Testing pdtran()...
  | All pdtran() tests passed.

  Obtaining array dimensions for all initial allocations:
  
  -----------------------------------------------------------------------
  Parsing control.in (first pass over file, find array dimensions only).
  The contents of control.in will be repeated verbatim below
  unless switched off by setting 'verbatim_writeout .false.' .
  in the first line of control.in .
  -----------------------------------------------------------------------
  
  ##################################################
  #
  #  input file :  au18 - benzimid - au18
  #
  ##################################################
  #
  #  Physical model
  #
    xc                 pbe
    spin               none
    charge             0.
    KS_method	     lapack_fast
  #
  #  SCF convergence
  #
    occupation_type    gaussian 0.01
    mixer              pulay
      n_max_pulay        10
      charge_mix_param   0.2
    sc_accuracy_rho    1E-4
    sc_accuracy_eev    1E-2
    sc_accuracy_etot   1E-6
  # sc_accuracy_forces 1E-4
    sc_iter_limit      500
  #
  #  Relaxation
  #
  # relax_geometry   bfgs 1.e-2
  #
  
  #  output an overlap matrix & wave functions
  #  to enable a post-processor transport calculation :
     output aitranss
  
  #  to enable restart of the calculation
     restart aims.restart
  
  #  scalar-relativistic treatment
     relativistic atomic_zora scalar
  #
  ################################################################################
  #
  #  FHI-aims code project
  #  VB, Fritz-Haber Institut, 2009
  #
  #  Suggested "light" defaults for Au atom (to be pasted into control.in file)
  #  Be sure to double-check any results obtained with these settings for post-processing,
  #  e.g., with the "tight" defaults and larger basis sets.
  #
  ################################################################################
    species        Au
  #     global species definitions
      nucleus             79
      mass                196.966569
  #
      l_hartree           4
  #
      cut_pot             3.5  1.5  1.0
      basis_dep_cutoff    1e-4
  #
      radial_base         73 5.0
      radial_multiplier   1
      angular_grids specified
        division   0.5066   50
        division   0.9861  110
        division   1.2821  194
        division   1.5344  302
  #      division   2.0427  434
  #      division   2.1690  590
  #      division   2.2710  770
  #      division   2.3066  974
  #      division   2.7597 1202
  #      outer_grid 974
        outer_grid 302
  ################################################################################
  #
  #  Definition of "minimal" basis
  #
  ################################################################################
  #     valence basis states
      valence      6  s   1.
      valence      5  p   6.
      valence      5  d  10.
      valence      4  f  14.
  #     ion occupancy
      ion_occ     6  s   0.
      ion_occ     5  p   6.
      ion_occ     5  d   9.
      ion_occ     4  f   14.
  ################################################################################
  #
  #  Suggested additional basis functions. For production calculations,
  #  uncomment them one after another (the most important basis functions are
  #  listed first).
  #
  #  Constructed for dimers: 2.10, 2.45, 3.00, 4.00 AA
  #
  ################################################################################
  #  "First tier" - max. impr. -161.60  meV, min. impr. -4.53 meV
       ionic 6 p auto
       hydro 4 f 7.4
       ionic 6 s auto
       hydro 5 g 10
       hydro 6 h 12.8
       hydro 3 d 2.5
  #  "Second tier" - max. impr. -2.46  meV, min. impr. -0.28 meV
  #     hydro 5 f 14.8
  #     hydro 4 d 3.9
  #     hydro 3 p 3.3
  #     hydro 1 s 0.45
  #     hydro 5 g 16.4
  #     hydro 6 h 13.6
  #  "Third tier" - max. impr. -0.49  meV, min. impr. -0.09 meV
  #     hydro 4 f 5.2
  #     hydro 4 d 5
  #     hydro 5 g 8
  #     hydro 5 p 8.2
  #     hydro 6 d 12.4
  #     hydro 6 s 14.8
  #  Further basis functions: -0.08 meV and below
  #     hydro 5 f 18.8
  #     hydro 5 g 20
  #    hydro 5 g 15.2
  ################################################################################
  #
  #  FHI-aims code project
  #  VB, Fritz-Haber Institut, 2009
  #
  #  Suggested "light" defaults for C atom (to be pasted into control.in file)
  #  Be sure to double-check any results obtained with these settings for post-processing,
  #  e.g., with the "tight" defaults and larger basis sets.
  #
  ################################################################################
    species        C
  #     global species definitions
      nucleus             6
      mass                12.0107
  #
      l_hartree           4
  #
      cut_pot             3.5  1.5  1.0
      basis_dep_cutoff    1e-4
  #
      radial_base         34 5.0
      radial_multiplier   1
      angular_grids specified
        division   0.3326   50
        division   0.5710  110
        division   0.7727  194
        division   0.8772  302
  #      division   0.9334  434
  #      division   0.9625  590
  #      division   0.9924  770
  #      division   1.0230  974
  #      division   1.4589 1202
  #     outer_grid  974
       outer_grid 302
  ################################################################################
  #
  #  Definition of "minimal" basis
  #
  ################################################################################
  #     valence basis states
      valence      2  s   2.
      valence      2  p   2.
  #     ion occupancy
      ion_occ      2  s   1.
      ion_occ      2  p   1.
  ################################################################################
  #
  #  Suggested additional basis functions. For production calculations,
  #  uncomment them one after another (the most important basis functions are
  #  listed first).
  #
  #  Constructed for dimers: 1.0 A, 1.25 A, 1.5 A, 2.0 A, 3.0 A
  #
  ################################################################################
  #  "First tier" - improvements: -1214.57 meV to -155.61 meV
       hydro 2 p 1.7
       hydro 3 d 6
       hydro 2 s 4.9
  #  "Second tier" - improvements: -67.75 meV to -5.23 meV
  #     hydro 4 f 9.8
  #     hydro 3 p 5.2
  #     hydro 3 s 4.3
  #     hydro 5 g 14.4
  #     hydro 3 d 6.2
  #  "Third tier" - improvements: -2.43 meV to -0.60 meV
  #     hydro 2 p 5.6
  #     hydro 2 s 1.4
  #     hydro 3 d 4.9
  #     hydro 4 f 11.2
  #  "Fourth tier" - improvements: -0.39 meV to -0.18 meV
  #     hydro 2 p 2.1
  #     hydro 5 g 16.4
  #     hydro 4 d 13.2
  #     hydro 3 s 13.6
  #     hydro 4 f 17.6
  #  Further basis functions - improvements: -0.08 meV and below
  #     hydro 3 s 2
  #     hydro 3 p 6
  #     hydro 4 d 20
  ################################################################################
  #
  #  FHI-aims code project
  #  VB, Fritz-Haber Institut, 2009
  #
  #  Suggested "light" defaults for H atom (to be pasted into control.in file)
  #  Be sure to double-check any results obtained with these settings for post-processing,
  #  e.g., with the "tight" defaults and larger basis sets.
  #
  ################################################################################
    species        H
  #     global species definitions
      nucleus             1
      mass                1.00794
  #
      l_hartree           4
  #
      cut_pot             3.5  1.5  1.0
      basis_dep_cutoff    1e-4
  #
      radial_base         24 5.0
      radial_multiplier   1
      angular_grids       specified
        division   0.2421   50
        division   0.3822  110
        division   0.4799  194
        division   0.5341  302
  #      division   0.5626  434
  #      division   0.5922  590
  #      division   0.6542  770
  #      division   0.6868 1202
  #      outer_grid  770
        outer_grid  302
  ################################################################################
  #
  #  Definition of "minimal" basis
  #
  ################################################################################
  #     valence basis states
      valence      1  s   1.
  #     ion occupancy
      ion_occ      1  s   0.5
  ################################################################################
  #
  #  Suggested additional basis functions. For production calculations,
  #  uncomment them one after another (the most important basis functions are
  #  listed first).
  #
  #  Basis constructed for dimers: 0.5 A, 0.7 A, 1.0 A, 1.5 A, 2.5 A
  #
  ################################################################################
  #  "First tier" - improvements: -1014.90 meV to -62.69 meV
       hydro 2 s 2.1
       hydro 2 p 3.5
  #  "Second tier" - improvements: -12.89 meV to -1.83 meV
  #     hydro 1 s 0.85
  #     hydro 2 p 3.7
  #     hydro 2 s 1.2
  #     hydro 3 d 7
  #  "Third tier" - improvements: -0.25 meV to -0.12 meV
  #     hydro 4 f 11.2
  #     hydro 3 p 4.8
  #     hydro 4 d 9
  #     hydro 3 s 3.2
  ################################################################################
  #
  #  FHI-aims code project
  #  VB, Fritz-Haber Institut, 2009
  #
  #  Suggested "light" defaults for N atom (to be pasted into control.in file)
  #  Be sure to double-check any results obtained with these settings for post-processing,
  #  e.g., with the "tight" defaults and larger basis sets.
  #
  ################################################################################
    species        N
  #     global species definitions
      nucleus             7
      mass                14.0067
  #
      l_hartree           4
  #
      cut_pot             3.5  1.5  1.0
      basis_dep_cutoff    1e-4
  #
      radial_base         35 5.0
      radial_multiplier   1
      angular_grids       specified
        division   0.2599   50
        division   0.4601  110
        division   0.5885  194
        division   0.6503  302
  #      division   0.6939  434
  #      division   0.7396  590
  #      division   0.7632  770
  #      division   0.8122  974
  #      division   1.1604 1202
  #      outer_grid  974
        outer_grid  302
  ################################################################################
  #
  #  Definition of "minimal" basis
  #
  ################################################################################
  #     valence basis states
      valence      2  s   2.
      valence      2  p   3.
  #     ion occupancy
      ion_occ      2  s   1.
      ion_occ      2  p   2.
  ################################################################################
  #
  #  Suggested additional basis functions. For production calculations,
  #  uncomment them one after another (the most important basis functions are
  #  listed first).
  #
  #  Constructed for dimers: 1.0 A, 1.1 A, 1.5 A, 2.0 A, 3.0 A
  #
  ################################################################################
  #  "First tier" - improvements: -1193.42 meV to -220.60 meV
       hydro 2 p 1.8
       hydro 3 d 6.8
       hydro 3 s 5.8
  #  "Second tier" - improvements: -80.21 meV to -6.86 meV
  #     hydro 4 f 10.8
  #     hydro 3 p 5.8
  #     hydro 1 s 0.8
  #     hydro 5 g 16
  #     hydro 3 d 4.9
  #  "Third tier" - improvements: -4.29 meV to -0.53 meV
  #     hydro 3 s 16
  #     ionic 2 p auto
  #     hydro 3 d 6.6
  #     hydro 4 f 11.6
  #  "Fourth tier" - improvements: -0.75 meV to -0.25 meV
  #     hydro 2 p 4.5
  #     hydro 2 s 2.4
  #     hydro 5 g 14.4
  #     hydro 4 d 14.4
  #     hydro 4 f 16.8
  # Further basis functions - -0.21 meV and below
  #     hydro 3 p 14.8
  #     hydro 3 s 4.4
  #     hydro 3 d 19.6
  #     hydro 5 g 12.8
  
  
  -----------------------------------------------------------------------
  Completed first pass over input file control.in .
  -----------------------------------------------------------------------
  
  
  -----------------------------------------------------------------------
  Parsing geometry.in (first pass over file, find array dimensions only).
  The contents of geometry.in will be repeated verbatim below
  unless switched off by setting 'verbatim_writeout .false.' .
  in the first line of geometry.in .
  -----------------------------------------------------------------------
  
  #
  atom      -1.30185596      1.53875838     12.28150991 N
  atom      -1.20860351      1.57318194     13.63716829 C
  atom      -0.07051177      1.18222552     11.75382876 C
  atom       0.74335347      1.00655390     12.85347840 C
  atom       0.02613693      1.25257480     14.01052770 N
  atom      -2.02812947      1.82484292     14.30130817 H
  atom       1.78983686      0.72751664     12.89622822 H
  atom       0.17974796      1.10949926     10.27874058 C
  atom       0.46948337      2.10840246      9.90561542 H
  atom      -0.74434632      0.83784309      9.74268503 H
  atom       1.27332523      0.10030777      9.92397916 C
  atom       2.16678570      0.27551168     10.54597235 H
  atom       0.92270717     -0.92149813     10.12371875 H
  atom       1.62401050      0.19401351      8.48721816 N
  atom       2.06215590      1.10002927      8.29218373 H
  atom       2.32885230     -0.51283191      8.25879798 H
  atom      -2.14128039      1.73950447     11.74415315 H
  atom       0.17398484     -0.05374340      6.70750578 Au
  atom      -0.28436161      1.68199998      4.61938957 Au
  atom       1.77715079     -0.49088673      4.54183182 Au
  atom      -1.12390122     -1.16116542      4.65836970 Au
  atom      -0.74227583      3.26222643      2.37268121 Au
    constrain_relaxation .true.
  atom       1.27010385      1.19685978      2.35155098 Au
    constrain_relaxation .true.
  atom       3.28248354     -0.86850686      2.33042076 Au
    constrain_relaxation .true.
  atom      -1.52430996      0.48675669      2.40505697 Au
    constrain_relaxation .true.
  atom       0.48806973     -1.57860996      2.38392675 Au
    constrain_relaxation .true.
  atom      -2.30634409     -2.28871305      2.43743274 Au
    constrain_relaxation .true.
  atom       0.81895287      2.79457347     -0.00633613 Au
    constrain_relaxation .true.
  atom       2.83133256      0.72920682     -0.02746636 Au
    constrain_relaxation .true.
  atom      -1.97546095      2.08447038      0.04716986 Au
    constrain_relaxation .true.
  atom       0.03691875      0.01910373      0.02603964 Au
    constrain_relaxation .true.
  atom       2.04929843     -2.04626293      0.00490940 Au
    constrain_relaxation .true.
  atom      -2.75749507     -0.69099936      0.07954563 Au
    constrain_relaxation .true.
  atom      -0.74511539     -2.75636601      0.05841541 Au
    constrain_relaxation .true.
  atom      -3.53668964      2.55212335      2.42618720 Au
    constrain_relaxation .true.
  atom       0.64805671      1.30135845     16.10509471 Au
  atom      -0.66860593      3.02672183     17.78953882 Au
  atom       0.03844566      0.23352545     18.50929084 Au
  atom       2.16424473      2.25051160     18.13519911 Au
  atom      -1.89407240      4.71009817     19.53578767 Au
    constrain_relaxation .true.
  atom      -1.24144674      1.99855527     20.26891298 Au
    constrain_relaxation .true.
  atom      -0.58882107     -0.71298763     21.00203829 Au
    constrain_relaxation .true.
  atom       0.85772721      3.94808182     19.93925738 Au
    constrain_relaxation .true.
  atom       1.51035288      1.23653892     20.67238269 Au
    constrain_relaxation .true.
  atom       3.60952684      3.18606547     20.34272710 Au
    constrain_relaxation .true.
  atom      -2.55129054      3.72989641     22.16697118 Au
    constrain_relaxation .true.
  atom      -1.89866487      1.01835351     22.90009649 Au
    constrain_relaxation .true.
  atom      -0.45211659      5.67942296     21.83731558 Au
    constrain_relaxation .true.
  atom       0.20050908      2.96788006     22.57044089 Au
    constrain_relaxation .true.
  atom       0.85313474      0.25633716     23.30356621 Au
    constrain_relaxation .true.
  atom       2.29968303      4.91740661     22.24078530 Au
    constrain_relaxation .true.
  atom       2.95230869      2.20586371     22.97391061 Au
    constrain_relaxation .true.
  atom       4.26215250      0.47452257     21.07585241 Au
    constrain_relaxation .true.
  
  -----------------------------------------------------------------------
  Completed first pass over input file geometry.in .
  -----------------------------------------------------------------------
  

  Basic array size parameters:
  | Number of species                 :        4
  | Number of atoms                   :       53
  | Max. basis fn. angular momentum   :        5
  | Max. atomic/ionic basis occupied n:        6
  | Max. number of basis fn. types    :        3
  | Max. radial fns per species/type  :       14
  | Max. logarithmic grid size        :     1488
  | Max. radial integration grid size :       73
  | Max. angular integration grid size:      302
  | Max. angular grid division number :        8
  | Radial grid for Hartree potential :     1488
  | Number of spin channels           :        1

------------------------------------------------------------
          Reading file control.in.
------------------------------------------------------------
  XC: Using PBE gradient-corrected functionals.
  Spin treatment: No spin polarisation.
  Charge =   0.000000E+00: Neutral system requested explicitly.
  Kohn-Sham eigenvalues and eigenfunctions calculated by ELSI.
  Occupation type: Gaussian broadening, width =   0.100000E-01 eV.
  Using pulay charge density mixing.
  Pulay mixing - number of memorized iterations:   10
  Charge density mixing - mixing parameter:     0.2000
  Convergence accuracy of self-consistent charge density:  0.1000E-03
  Convergence accuracy of sum of eigenvalues:  0.1000E-01
  Convergence accuracy of total energy:  0.1000E-05
  Maximum number of s.-c. iterations  :   500
  Overlap matrix and KS-eigenvectors will be written out
   in a format compatible with "aitranss" module 
  Restart file specified as : aims.restart
  | This file does not exist, will create it after the first complete scf cycle.
  Scalar relativistic treatment of kinetic energy: on-site free-atom approximation to ZORA.
 
  Reading configuration options for species Au                  .
  | Found nuclear charge :  79.0000
  | Found atomic mass :    196.966569000000      amu
  | Found l_max for Hartree potential  :   4
  | Found cutoff potl. onset [A], width [A], scale factor :    3.50000    1.50000    1.00000
  | Threshold for basis-dependent cutoff potential is   0.100000E-03
  | Found data for basic radial integration grid :    73 points, outermost radius =    5.000 A
  | Found multiplier for basic radial grid :   1
  | Found angular grid specification: user-specified.
  | Specified grid contains     5 separate shells.
  | Check grid settings after all constraints further below.
  | Found free-atom valence shell :  6 s   1.000
  | Found free-atom valence shell :  5 p   6.000
  | Found free-atom valence shell :  5 d  10.000
  | Found free-atom valence shell :  4 f  14.000
  | Found free-ion valence shell :  6 s   0.000
  | Found free-ion valence shell :  5 p   6.000
  | Found free-ion valence shell :  5 d   9.000
  | Found free-ion valence shell :  4 f  14.000
  | Found ionic basis function :  6 p , default cutoff radius.
  | Found hydrogenic basis function :  4 f   7.400
  | Found ionic basis function :  6 s , default cutoff radius.
  | Found hydrogenic basis function :  5 g  10.000
  | Found hydrogenic basis function :  6 h  12.800
  | Found hydrogenic basis function :  3 d   2.500
  Species Au                  : Missing cutoff potential type.
  Defaulting to exp(1/x)/(1-x)^2 type cutoff potential.
  Species Au: No 'logarithmic' tag. Using default grid for free atom:
  | Default logarithmic grid data [bohr] : 0.1000E-03 0.1000E+03 0.1012E+01
  | Will include ionic basis functions of  2.0-fold positive Au                   ion.
  Species Au: On-site basis accuracy parameter (for Gram-Schmidt orthonormalisation) not specified.
  Using default value basis_acc =  0.1000000E-03.
  Species Au                  : Using default innermost maximum threshold i_radial=  2 for radial functions.
  Species Au                  : Default cutoff onset for free atom density etc. : 0.35000000E+01 AA.
  Species Au                  : Basic radial grid will be enhanced according to radial_multiplier =   1, to contain    73 grid points.
 
  Reading configuration options for species C                   .
  | Found nuclear charge :   6.0000
  | Found atomic mass :    12.0107000000000      amu
  | Found l_max for Hartree potential  :   4
  | Found cutoff potl. onset [A], width [A], scale factor :    3.50000    1.50000    1.00000
  | Threshold for basis-dependent cutoff potential is   0.100000E-03
  | Found data for basic radial integration grid :    34 points, outermost radius =    5.000 A
  | Found multiplier for basic radial grid :   1
  | Found angular grid specification: user-specified.
  | Specified grid contains     5 separate shells.
  | Check grid settings after all constraints further below.
  | Found free-atom valence shell :  2 s   2.000
  | Found free-atom valence shell :  2 p   2.000
  | Found free-ion valence shell :  2 s   1.000
  | Found free-ion valence shell :  2 p   1.000
  | Found hydrogenic basis function :  2 p   1.700
  | Found hydrogenic basis function :  3 d   6.000
  | Found hydrogenic basis function :  2 s   4.900
  Species C                   : Missing cutoff potential type.
  Defaulting to exp(1/x)/(1-x)^2 type cutoff potential.
  Species C : No 'logarithmic' tag. Using default grid for free atom:
  | Default logarithmic grid data [bohr] : 0.1000E-03 0.1000E+03 0.1012E+01
  Species C : On-site basis accuracy parameter (for Gram-Schmidt orthonormalisation) not specified.
  Using default value basis_acc =  0.1000000E-03.
  Species C                   : Using default innermost maximum threshold i_radial=  2 for radial functions.
  Species C                   : Default cutoff onset for free atom density etc. : 0.35000000E+01 AA.
  Species C                   : Basic radial grid will be enhanced according to radial_multiplier =   1, to contain    34 grid points.
 
  Reading configuration options for species H                   .
  | Found nuclear charge :   1.0000
  | Found atomic mass :    1.00794000000000      amu
  | Found l_max for Hartree potential  :   4
  | Found cutoff potl. onset [A], width [A], scale factor :    3.50000    1.50000    1.00000
  | Threshold for basis-dependent cutoff potential is   0.100000E-03
  | Found data for basic radial integration grid :    24 points, outermost radius =    5.000 A
  | Found multiplier for basic radial grid :   1
  | Found angular grid specification: user-specified.
  | Specified grid contains     5 separate shells.
  | Check grid settings after all constraints further below.
  | Found free-atom valence shell :  1 s   1.000
  | Found free-ion valence shell :  1 s   0.500
  | Found hydrogenic basis function :  2 s   2.100
  | Found hydrogenic basis function :  2 p   3.500
  Species H                   : Missing cutoff potential type.
  Defaulting to exp(1/x)/(1-x)^2 type cutoff potential.
  Species H : No 'logarithmic' tag. Using default grid for free atom:
  | Default logarithmic grid data [bohr] : 0.1000E-03 0.1000E+03 0.1012E+01
  Species H : On-site basis accuracy parameter (for Gram-Schmidt orthonormalisation) not specified.
  Using default value basis_acc =  0.1000000E-03.
  Species H                   : Using default innermost maximum threshold i_radial=  2 for radial functions.
  Species H                   : Default cutoff onset for free atom density etc. : 0.35000000E+01 AA.
  Species H                   : Basic radial grid will be enhanced according to radial_multiplier =   1, to contain    24 grid points.
 
  Reading configuration options for species N                   .
  | Found nuclear charge :   7.0000
  | Found atomic mass :    14.0067000000000      amu
  | Found l_max for Hartree potential  :   4
  | Found cutoff potl. onset [A], width [A], scale factor :    3.50000    1.50000    1.00000
  | Threshold for basis-dependent cutoff potential is   0.100000E-03
  | Found data for basic radial integration grid :    35 points, outermost radius =    5.000 A
  | Found multiplier for basic radial grid :   1
  | Found angular grid specification: user-specified.
  | Specified grid contains     5 separate shells.
  | Check grid settings after all constraints further below.
  | Found free-atom valence shell :  2 s   2.000
  | Found free-atom valence shell :  2 p   3.000
  | Found free-ion valence shell :  2 s   1.000
  | Found free-ion valence shell :  2 p   2.000
  | Found hydrogenic basis function :  2 p   1.800
  | Found hydrogenic basis function :  3 d   6.800
  | Found hydrogenic basis function :  3 s   5.800
  Species N                   : Missing cutoff potential type.
  Defaulting to exp(1/x)/(1-x)^2 type cutoff potential.
  Species N : No 'logarithmic' tag. Using default grid for free atom:
  | Default logarithmic grid data [bohr] : 0.1000E-03 0.1000E+03 0.1012E+01
  Species N : On-site basis accuracy parameter (for Gram-Schmidt orthonormalisation) not specified.
  Using default value basis_acc =  0.1000000E-03.
  Species N                   : Using default innermost maximum threshold i_radial=  2 for radial functions.
  Species N                   : Default cutoff onset for free atom density etc. : 0.35000000E+01 AA.
  Species N                   : Basic radial grid will be enhanced according to radial_multiplier =   1, to contain    35 grid points.
 
  Finished reading input file 'control.in'. Consistency checks are next.
 
  MPI_IN_PLACE appears to work with this MPI implementation.
  | Keeping use_mpi_in_place .true. (see manual).
  Target number of points in a grid batch is not set. Defaulting to  100
  Method for grid partitioning is not set. Defaulting to parallel hash+maxmin partitioning.
  Batch size limit is not set. Defaulting to    200
  By default, will store active basis functions for each batch.
  If in need of memory, prune_basis_once .false. can be used to disable this option.
  communication_type for Hartree potential was not specified.
  Defaulting to calc_hartree .
  Pulay mixer: Number of initial linear mixing iterations not set.
  Defaulting to    0 iterations.
  Work space size for distributed Hartree potential not set.
  Defaulting to   0.200000E+03 MB.
  Algorithm-dependent basis array size parameters:
  | n_max_pulay                         :       10
  Presetting      1001 iterations before the initial mixing cycle
  is restarted anyway using the sc_init_iter criterion / keyword.
  Presetting a factor      1.000 between actual scf density residual
  and density convergence criterion sc_accuracy_rho below which sc_init_iter
  takes no effect.
  Calculation of forces was not defined in control.in. No forces will be calculated.
  Geometry relaxation not requested: no relaxation will be performed.
  No accuracy limit for integral partition fn. given. Defaulting to  0.1000E-14.
  No threshold value for u(r) in integrations given. Defaulting to  0.1000E-05.
  No accuracy for occupation numbers given. Defaulting to  0.1000E-12.
  No threshold value for occupation numbers given. Defaulting to  0.0000E+00.
  No accuracy for fermi level given. Defaulting to  0.1000E-19.
  Maximum # of iterations to find E_F not set. Defaulting to  200.
  Will not use alltoall communication since running on < 1024 CPUs.
  Threshold for basis singularities not set.
  Default threshold for basis singularities:  0.1000E-04
  partition_type (choice of integration weights) for integrals was not specified.
  | Using a version of the partition function of Stratmann and coworkers ('stratmann_smoother').
  | At each grid point, the set of atoms used to build the partition table is smoothly restricted to
  | only those atoms whose free-atom density would be non-zero at that grid point.
  Partitioning for Hartree potential was not defined. Using partition_type for integrals.
  | Adjusted default value of keyword multip_moments_threshold to:       0.10000000E-11
  | This value may affect high angular momentum components of the Hartree potential in periodic systems.
  No q(lm)/r^(l+1) cutoff set for long-range Hartree potential.
  | Using default value of  0.100000E-09 .
  | Verify using the multipole_threshold keyword.
  Defaulting to new monopole extrapolation.
  Density update method: automatic selection selected.
------------------------------------------------------------


------------------------------------------------------------
          Reading geometry description geometry.in.
------------------------------------------------------------
 No relaxation requested - ignoring relaxation constraint.
 No relaxation requested - ignoring relaxation constraint.
 No relaxation requested - ignoring relaxation constraint.
 No relaxation requested - ignoring relaxation constraint.
 No relaxation requested - ignoring relaxation constraint.
 No relaxation requested - ignoring relaxation constraint.
 No relaxation requested - ignoring relaxation constraint.
 No relaxation requested - ignoring relaxation constraint.
 No relaxation requested - ignoring relaxation constraint.
 No relaxation requested - ignoring relaxation constraint.
 No relaxation requested - ignoring relaxation constraint.
 No relaxation requested - ignoring relaxation constraint.
 No relaxation requested - ignoring relaxation constraint.
 No relaxation requested - ignoring relaxation constraint.
 No relaxation requested - ignoring relaxation constraint.
 No relaxation requested - ignoring relaxation constraint.
 No relaxation requested - ignoring relaxation constraint.
 No relaxation requested - ignoring relaxation constraint.
 No relaxation requested - ignoring relaxation constraint.
 No relaxation requested - ignoring relaxation constraint.
 No relaxation requested - ignoring relaxation constraint.
 No relaxation requested - ignoring relaxation constraint.
 No relaxation requested - ignoring relaxation constraint.
 No relaxation requested - ignoring relaxation constraint.
 No relaxation requested - ignoring relaxation constraint.
 No relaxation requested - ignoring relaxation constraint.
 No relaxation requested - ignoring relaxation constraint.
 No relaxation requested - ignoring relaxation constraint.
  Input structure read successfully.
  The structure contains       53 atoms,  and a total of       2904.000 electrons.

  Input geometry:
  | No unit cell requested.
  | Atomic structure:
  |       Atom                x [A]            y [A]            z [A]
  |    1: Species N            -1.30185596        1.53875838       12.28150991
  |    2: Species C            -1.20860351        1.57318194       13.63716829
  |    3: Species C            -0.07051177        1.18222552       11.75382876
  |    4: Species C             0.74335347        1.00655390       12.85347840
  |    5: Species N             0.02613693        1.25257480       14.01052770
  |    6: Species H            -2.02812947        1.82484292       14.30130817
  |    7: Species H             1.78983686        0.72751664       12.89622822
  |    8: Species C             0.17974796        1.10949926       10.27874058
  |    9: Species H             0.46948337        2.10840246        9.90561542
  |   10: Species H            -0.74434632        0.83784309        9.74268503
  |   11: Species C             1.27332523        0.10030777        9.92397916
  |   12: Species H             2.16678570        0.27551168       10.54597235
  |   13: Species H             0.92270717       -0.92149813       10.12371875
  |   14: Species N             1.62401050        0.19401351        8.48721816
  |   15: Species H             2.06215590        1.10002927        8.29218373
  |   16: Species H             2.32885230       -0.51283191        8.25879798
  |   17: Species H            -2.14128039        1.73950447       11.74415315
  |   18: Species Au            0.17398484       -0.05374340        6.70750578
  |   19: Species Au           -0.28436161        1.68199998        4.61938957
  |   20: Species Au            1.77715079       -0.49088673        4.54183182
  |   21: Species Au           -1.12390122       -1.16116542        4.65836970
  |   22: Species Au           -0.74227583        3.26222643        2.37268121
  |   23: Species Au            1.27010385        1.19685978        2.35155098
  |   24: Species Au            3.28248354       -0.86850686        2.33042076
  |   25: Species Au           -1.52430996        0.48675669        2.40505697
  |   26: Species Au            0.48806973       -1.57860996        2.38392675
  |   27: Species Au           -2.30634409       -2.28871305        2.43743274
  |   28: Species Au            0.81895287        2.79457347       -0.00633613
  |   29: Species Au            2.83133256        0.72920682       -0.02746636
  |   30: Species Au           -1.97546095        2.08447038        0.04716986
  |   31: Species Au            0.03691875        0.01910373        0.02603964
  |   32: Species Au            2.04929843       -2.04626293        0.00490940
  |   33: Species Au           -2.75749507       -0.69099936        0.07954563
  |   34: Species Au           -0.74511539       -2.75636601        0.05841541
  |   35: Species Au           -3.53668964        2.55212335        2.42618720
  |   36: Species Au            0.64805671        1.30135845       16.10509471
  |   37: Species Au           -0.66860593        3.02672183       17.78953882
  |   38: Species Au            0.03844566        0.23352545       18.50929084
  |   39: Species Au            2.16424473        2.25051160       18.13519911
  |   40: Species Au           -1.89407240        4.71009817       19.53578767
  |   41: Species Au           -1.24144674        1.99855527       20.26891298
  |   42: Species Au           -0.58882107       -0.71298763       21.00203829
  |   43: Species Au            0.85772721        3.94808182       19.93925738
  |   44: Species Au            1.51035288        1.23653892       20.67238269
  |   45: Species Au            3.60952684        3.18606547       20.34272710
  |   46: Species Au           -2.55129054        3.72989641       22.16697118
  |   47: Species Au           -1.89866487        1.01835351       22.90009649
  |   48: Species Au           -0.45211659        5.67942296       21.83731558
  |   49: Species Au            0.20050908        2.96788006       22.57044089
  |   50: Species Au            0.85313474        0.25633716       23.30356621
  |   51: Species Au            2.29968303        4.91740661       22.24078530
  |   52: Species Au            2.95230869        2.20586371       22.97391061
  |   53: Species Au            4.26215250        0.47452257       21.07585241
  |

  | The smallest distance between any two atoms is         1.01670283 AA.
  |
  | The first atom of this pair is atom number                      1 .
  | The second atom of this pair is atom number                    17 .

  Number of empty states per atom not set in control.in - providing a guess from actual geometry.
  | Total number of empty states used during s.c.f. cycle:      362
  If you use a very high smearing, use empty_states (per atom!) in control.in to increase this value.

  Structure-dependent array size parameters: 
  | Maximum number of distinct radial functions  :       35
  | Maximum number of basis functions            :     2893
  | Number of Kohn-Sham states (occupied + empty):     1814
------------------------------------------------------------

------------------------------------------------------------
          Preparing all fixed parts of the calculation.
------------------------------------------------------------
  Determining machine precision:
    2.225073858507201E-308
  Setting up grids for atomic and cluster calculations.

  Creating wave function, potential, and density for free atoms.

  Species: Au

  List of occupied orbitals and eigenvalues:
    n    l              occ      energy [Ha]    energy [eV]
    1    0           2.0000     -3256.431199    -88612.0015
    2    0           2.0000      -533.654865    -14521.4877
    3    0           2.0000      -124.232088     -3380.5271
    4    0           2.0000       -26.843821      -730.4575
    5    0           2.0000        -3.974251      -108.1449
    6    0           1.0000        -0.207180        -5.6377
    2    1           6.0000      -460.384091    -12527.6885
    3    1           6.0000      -103.448928     -2814.9886
    4    1           6.0000       -20.075789      -546.2900
    5    1           6.0000        -2.189737       -59.5858
    3    2          10.0000       -81.364825     -2214.0495
    4    2          10.0000       -11.975168      -325.8609
    5    2          10.0000        -0.249072        -6.7776
    4    3          14.0000        -2.985533       -81.2405


  Species: C

  List of occupied orbitals and eigenvalues:
    n    l              occ      energy [Ha]    energy [eV]
    1    0           2.0000       -10.046810      -273.3876
    2    0           2.0000        -0.503128       -13.6908
    2    1           2.0000        -0.191849        -5.2205


  Species: H

  List of occupied orbitals and eigenvalues:
    n    l              occ      energy [Ha]    energy [eV]
    1    0           1.0000        -0.237593        -6.4652


  Species: N

  List of occupied orbitals and eigenvalues:
    n    l              occ      energy [Ha]    energy [eV]
    1    0           2.0000       -14.143973      -384.8771
    2    0           2.0000        -0.682008       -18.5584
    2    1           3.0000        -0.259605        -7.0642

  Creating fixed part of basis set: Ionic, confined, hydrogenic.
 
  Au                   ion:

  List of free ionic orbitals and eigenvalues:
    n    l      energy [Ha]    energy [eV]
    1    0     -3257.305345    -88635.7882
    2    0      -534.468969    -14543.6406
    3    0      -125.037161     -3402.4343
    4    0       -27.646714      -752.3054
    5    0        -4.773414      -129.8912
    2    1      -461.196653    -12549.7994
    3    1      -104.253556     -2836.8836
    4    1       -20.878488      -568.1326
    5    1        -2.984283       -81.2065
    3    2       -82.168946     -2235.9308
    4    2       -12.777596      -347.6961
    5    2        -1.004504       -27.3340
    4    3        -3.787521      -103.0637


  List of ionic basis orbitals and eigenvalues:
    n    l      energy [Ha]    energy [eV]    outer radius [A]
    6    1        -0.535414       -14.5694       4.560053
    6    0        -0.835538       -22.7361       4.504645

 
  Au                   hydrogenic:
 
  List of hydrogenic basis orbitals: 
    n    l      effective z      eigenvalue [eV]  inner max. [A]     outer max. [A]     outer radius [A]   
    4    3         7.400000       -46.5648           1.145580           1.145580           4.504645
    5    4        10.000000       -54.4214           1.326589           1.326589           4.504645
    6    5        12.800000       -61.9181           1.480879           1.480879           4.560053
    3    2         2.500000        -9.0892           1.822958           1.822958           4.616141
 
 
  C                    hydrogenic:
 
  List of hydrogenic basis orbitals: 
    n    l      effective z      eigenvalue [eV]  inner max. [A]     outer max. [A]     outer radius [A]   
    2    1         1.700000        -9.7616           1.230570           1.230570           4.607917
    3    2         6.000000       -54.4224           0.792453           0.792453           3.883070
    2    0         4.900000       -81.6679           0.082559           0.562749           3.078220
 
 
  H                    hydrogenic:
 
  List of hydrogenic basis orbitals: 
    n    l      effective z      eigenvalue [eV]  inner max. [A]     outer max. [A]     outer radius [A]   
    2    0         2.100000       -14.9728           0.193243           1.317208           4.583499
    2    1         3.500000       -41.6669           0.602369           0.602369           3.723403
 
 
  N                    hydrogenic:
 
  List of hydrogenic basis orbitals: 
    n    l      effective z      eigenvalue [eV]  inner max. [A]     outer max. [A]     outer radius [A]   
    2    1         1.800000       -10.9749           1.177451           1.177451           4.573712
    3    2         6.800000       -69.9026           0.704619           0.704619           3.538137
    3    0         5.800000       -50.8545           0.067388           1.191934           4.250239
 

  Adding cutoff potential to free-atom effective potential.
  Creating atomic-like basis functions for current effective potential.

  Species Au                  :

  List of atomic basis orbitals and eigenvalues:
    n    l      energy [Ha]    energy [eV]    outer radius [A]
    1    0     -3256.431199    -88612.0015       0.120816
    2    0      -533.654865    -14521.4877       0.313506
    3    0      -124.232088     -3380.5271       0.652830
    4    0       -26.843821      -730.4575       1.359424
    5    0        -3.974251      -108.1449       3.318406
    6    0        -0.207180        -5.6377       4.560053
    2    1      -460.384091    -12527.6885       0.329217
    3    1      -103.448928     -2814.9886       0.702515
    4    1       -20.075789      -546.2900       1.536198
    5    1        -2.189737       -59.5858       4.035315
    3    2       -81.364825     -2214.0495       0.755981
    4    2       -11.975168      -325.8609       1.868078
    5    2        -0.249072        -6.7776       4.504645
    4    3        -2.985533       -81.2405       3.198908


  Species C                   :

  List of atomic basis orbitals and eigenvalues:
    n    l      energy [Ha]    energy [eV]    outer radius [A]
    1    0       -10.046810      -273.3876       1.934409
    2    0        -0.503128       -13.6908       4.496620
    2    1        -0.191849        -5.2205       4.551928


  Species H                   :

  List of atomic basis orbitals and eigenvalues:
    n    l      energy [Ha]    energy [eV]    outer radius [A]
    1    0        -0.237593        -6.4652       4.527807


  Species N                   :

  List of atomic basis orbitals and eigenvalues:
    n    l      energy [Ha]    energy [eV]    outer radius [A]
    1    0       -14.143973      -384.8771       1.637919
    2    0        -0.682008       -18.5584       4.463241
    2    1        -0.259605        -7.0642       4.518138

  Assembling full basis from fixed parts.
  | Species Au :   atomic orbital   1 s accepted.
  | Species Au :   atomic orbital   2 s accepted.
  | Species Au :   atomic orbital   3 s accepted.
  | Species Au :   atomic orbital   4 s accepted.
  | Species Au :   atomic orbital   5 s accepted.
  | Species Au :    ionic orbital   6 s accepted.
  | Species Au :   atomic orbital   6 s accepted.
  | Species Au :   atomic orbital   2 p accepted.
  | Species Au :   atomic orbital   3 p accepted.
  | Species Au :   atomic orbital   4 p accepted.
  | Species Au :   atomic orbital   5 p accepted.
  | Species Au :    ionic orbital   6 p accepted.
  | Species Au :   atomic orbital   3 d accepted.
  | Species Au :   atomic orbital   4 d accepted.
  | Species Au :   atomic orbital   5 d accepted.
  | Species Au :    hydro orbital   3 d accepted.
  | Species Au :   atomic orbital   4 f accepted.
  | Species Au :    hydro orbital   4 f accepted.
  | Species Au :    hydro orbital   5 g accepted.
  | Species Au :    hydro orbital   6 h accepted.
  | Species C :   atomic orbital   1 s accepted.
  | Species C :    hydro orbital   2 s accepted.
  | Species C :   atomic orbital   2 s accepted.
  | Species C :   atomic orbital   2 p accepted.
  | Species C :    hydro orbital   2 p accepted.
  | Species C :    hydro orbital   3 d accepted.
  | Species H :   atomic orbital   1 s accepted.
  | Species H :    hydro orbital   2 s accepted.
  | Species H :    hydro orbital   2 p accepted.
  | Species N :   atomic orbital   1 s accepted.
  | Species N :    hydro orbital   3 s accepted.
  | Species N :   atomic orbital   2 s accepted.
  | Species N :   atomic orbital   2 p accepted.
  | Species N :    hydro orbital   2 p accepted.
  | Species N :    hydro orbital   3 d accepted.
  
  * For the output of the overlap matrix and KS-eigenvectors in a format compatible
  * with "aitranss" module, all     2893 available KS-states will be computed
 
  Basis size parameters after reduction:
  | Total number of radial functions:       35
  | Total number of basis functions :     2893
 
  Per-task memory consumption for arrays in subroutine allocate_ext:
  |          13.401152MB.
  Testing on-site integration grid accuracy.
  |  Species  Function  <phi|h_atom|phi> (log., in eV)  <phi|h_atom|phi> (rad., in eV)
           1        1             -88612.0014632775             -88611.6712034180 ***
           1        2             -14521.4877182964             -14521.4813999840
           1        3              -3380.5271184873              -3380.5267747403
           1        4               -730.4575387750               -730.4575126103
           1        5               -108.1448599487               -108.1448564257
           1        6                 -5.0942970264                 -5.0944290505
           1        7                  6.1115134725                  6.0788143786 ***
           1        8             -12527.6885190594             -12527.6885173588
           1        9              -2814.9885638658              -2814.9885482953
           1       10               -546.2900141357               -546.2900083742
           1       11                -59.5857773529                -59.5857755927
           1       12                  0.8801786309                  0.8779179090
           1       13              -2214.0495316492              -2214.0495265682
           1       14               -325.8609015357               -325.8608990336
           1       15                 -6.7779523923                 -6.7780549541
           1       16                  6.8774732691                  6.8534371069
           1       17                -81.2404736787                -81.2404731538
           1       18                 21.6950885255                 21.6950713539
           1       19                 37.5256805321                 37.5255763704
           1       20                 50.1803128763                 50.1800983087
           2       21               -273.3876219248               -273.3875919908
           2       22                -10.7204647119                -10.7200987605
           2       23                 17.5782951162                 17.5752355731
           2       24                 -5.2222267983                 -5.2237454471
           2       25                  8.6866956284                  8.6634852736
           2       26                 27.4984676161                 27.4985577266
           3       27                 -6.4664147733                 -6.4652229287
           3       28                 13.7099062243                 13.7158503352
           3       29                 25.2661739479                 25.2663166526
           4       30               -384.8770852117               -384.8770238677
           4       31                 12.5754985569                 12.5755902267
           4       32                -15.7673946342                -15.7673131151
           4       33                 -7.0647024646                 -7.0651952863
           4       34                  8.8117910309                  8.7928686443
           4       35                 35.9641313272                 35.9643080891
 * Note: Onsite integrals marked "***" above are less accurate than
 * onsite_accuracy_threshold =    0.03000 eV. Usually, this is harmless.
 * However, one integral did have a negative value. This integral could be important.
 * When in doubt, tighten the "radial" and/or "radial_multiplier" flags to check.

  Preparing densities etc. for the partition functions (integrals / Hartree potential).

  Preparations completed.
  max(cpu_time)          :      0.542 s.
  Wall clock time (cpu1) :      0.534 s.
------------------------------------------------------------

------------------------------------------------------------
          Begin self-consistency loop: Initialization.

          Date     :  20221012, Time     :  114903.646
------------------------------------------------------------

  Initializing index lists of integration centers etc. from given atomic structure:
  | Number of centers in hartree potential         :        53
  | Number of centers in hartree multipole         :        53
  | Number of centers in electron density summation:        53
  | Number of centers in basis integrals           :        53
  | Number of centers in integrals                 :        53
  | Number of centers in hamiltonian               :        53
  Partitioning the integration grid into batches with parallel hashing+maxmin method.
  | Number of batches:     3564
  | Maximal batch size:     198
  | Minimal batch size:      58
  | Average batch size:     117.498
  | Standard deviation of batch sizes:      36.277

  Integration load balanced across    16 MPI tasks.
  Work distribution over tasks is as follows:
  Task     0 has      26134 integration points.
  Task     1 has      26226 integration points.
  Task     2 has      26237 integration points.
  Task     3 has      26209 integration points.
  Task     4 has      26133 integration points.
  Task     5 has      26207 integration points.
  Task     6 has      26225 integration points.
  Task     7 has      26115 integration points.
  Task     8 has      26120 integration points.
  Task     9 has      26193 integration points.
  Task    10 has      26147 integration points.
  Task    11 has      26236 integration points.
  Task    12 has      26107 integration points.
  Task    13 has      26121 integration points.
  Task    14 has      26114 integration points.
  Task    15 has      26238 integration points.
  Initializing partition tables, free-atom densities, potentials, etc. across the integration grid (initialize_grid_storage).
  | initialize_grid_storage: Actual outermost partition radius vs. multipole_radius_free
  | (-- VB: in principle, multipole_radius_free should be larger, hence this output)
  | Species        1: Confinement radius =              4.999999999999999 AA, multipole_radius_free =              5.028561921230412 AA.
  | Species        1: outer_partition_radius set to              5.028561921230412 AA .
  | Species        2: Confinement radius =              4.999999999999999 AA, multipole_radius_free =              5.019602836301480 AA.
  | Species        2: outer_partition_radius set to              5.019602836301480 AA .
  | Species        3: Confinement radius =              4.999999999999999 AA, multipole_radius_free =              5.054417573612229 AA.
  | Species        3: outer_partition_radius set to              5.054417573612229 AA .
  | Species        4: Confinement radius =              4.999999999999999 AA, multipole_radius_free =              5.043624274424571 AA.
  | Species        4: outer_partition_radius set to              5.043624274424571 AA .
  | Original list of interatomic distances with          53 x         53 entries is created.
  | Net number of integration points:   418762
  | of which are non-zero points    :   383303
  Renormalizing the initial density to the exact electron count on the 3D integration grid.
  | Initial density: Formal number of electrons (from input files) :    2904.0000000000
  | Integrated number of electrons on 3D grid     :    2903.9996706802
  | Charge integration error                      :      -0.0003293198
  | Normalization factor for density and gradient :       1.0000001134
  Obtaining max. number of non-zero basis functions in each batch (get_n_compute_maxes).
  | Maximal number of non-zero basis functions:      950 in task     0
  | Maximal number of non-zero basis functions:      938 in task     1
  | Maximal number of non-zero basis functions:      934 in task     2
  | Maximal number of non-zero basis functions:      951 in task     3
  | Maximal number of non-zero basis functions:      939 in task     4
  | Maximal number of non-zero basis functions:      944 in task     5
  | Maximal number of non-zero basis functions:      970 in task     6
  | Maximal number of non-zero basis functions:      938 in task     7
  | Maximal number of non-zero basis functions:      939 in task     8
  | Maximal number of non-zero basis functions:      942 in task     9
  | Maximal number of non-zero basis functions:      956 in task    10
  | Maximal number of non-zero basis functions:      953 in task    11
  | Maximal number of non-zero basis functions:      965 in task    12
  | Maximal number of non-zero basis functions:      936 in task    13
  | Maximal number of non-zero basis functions:      954 in task    14
  | Maximal number of non-zero basis functions:      973 in task    15
  Selecting the method for density update.
  Density matrix based charge density update selected.
  Allocating       66.956 MB for KS_eigenvector
  Integrating Hamiltonian matrix: batch-based integration.
  Time summed over all CPUs for integration: real work       24.059 s, elapsed       25.478 s
  Integrating overlap matrix.
  Time summed over all CPUs for integration: real work       16.134 s, elapsed       17.225 s
  Writing basis function properties and the overlap matrix.
   2893 basis functions used.

  Updating Kohn-Sham eigenvalues and eigenvectors using ELSI and the ELPA eigensolver.
  Overlap matrix is nonsingular
  | Lowest eigenvalue of overlap  :  0.17E-02
  | Highest eigenvalue of overlap :  0.64E+01
  Finished singularity check of overlap matrix
  | Time :    12.703 s
  Finished Cholesky decomposition
  | Time :     0.955 s
  Finished transformation to standard eigenproblem
  | Time :     1.458 s
  Starting LAPACK eigensolver
  Finished solving standard eigenproblem
  | Time :    14.312 s
  Finished back-transformation of eigenvectors
  | Time :     1.205 s

  Obtaining occupation numbers and chemical potential using ELSI.
  | Chemical potential (Fermi level):    -4.64673147eV
  Writing Kohn-Sham eigenvalues.

  State    Occupation    Eigenvalue [Ha]    Eigenvalue [eV]
      1       2.00000       -3256.415500       -88611.57425
      2       2.00000       -3256.415466       -88611.57334
      3       2.00000       -3256.415263       -88611.56781
      4       2.00000       -3256.415239       -88611.56717
      5       2.00000       -3256.415129       -88611.56415
      6       2.00000       -3256.415105       -88611.56351
      7       2.00000       -3256.414750       -88611.55385
      8       2.00000       -3256.414750       -88611.55385
      9       2.00000       -3256.414677       -88611.55187
     10       2.00000       -3256.414560       -88611.54868
     11       2.00000       -3256.414538       -88611.54807
     12       2.00000       -3256.414445       -88611.54555
     13       2.00000       -3256.414423       -88611.54496
     14       2.00000       -3256.414409       -88611.54459
     15       2.00000       -3256.414255       -88611.54039
     16       2.00000       -3256.414105       -88611.53631
     17       2.00000       -3256.413721       -88611.52585
     18       2.00000       -3256.413682       -88611.52480
     19       2.00000       -3256.413564       -88611.52159
     20       2.00000       -3256.413508       -88611.52007
     21       2.00000       -3256.413500       -88611.51984
     22       2.00000       -3256.413500       -88611.51984
     23       2.00000       -3256.413437       -88611.51812
     24       2.00000       -3256.413382       -88611.51662
     25       2.00000       -3256.413083       -88611.50851
     26       2.00000       -3256.413083       -88611.50851
     27       2.00000       -3256.413083       -88611.50851
     28       2.00000       -3256.413083       -88611.50851
     29       2.00000       -3256.413083       -88611.50851
     30       2.00000       -3256.413083       -88611.50851
     31       2.00000       -3256.413083       -88611.50851
     32       2.00000       -3256.413083       -88611.50851
     33       2.00000       -3256.413083       -88611.50851
     34       2.00000       -3256.413083       -88611.50851
     35       2.00000       -3256.412250       -88611.48583
     36       2.00000       -3256.412250       -88611.48583
     37       2.00000        -533.656792       -14521.54015
     38       2.00000        -533.656758       -14521.53923
     39       2.00000        -533.656554       -14521.53367
     40       2.00000        -533.656530       -14521.53303
     41       2.00000        -533.656419       -14521.53001
     42       2.00000        -533.656395       -14521.52936
     43       2.00000        -533.656039       -14521.51967
     44       2.00000        -533.656039       -14521.51967
     45       2.00000        -533.655964       -14521.51762
     46       2.00000        -533.655847       -14521.51444
     47       2.00000        -533.655825       -14521.51384
     48       2.00000        -533.655732       -14521.51131
     49       2.00000        -533.655709       -14521.51069
     50       2.00000        -533.655696       -14521.51034
     51       2.00000        -533.655542       -14521.50613
     52       2.00000        -533.655391       -14521.50204
     53       2.00000        -533.655006       -14521.49155
     54       2.00000        -533.654967       -14521.49049
     55       2.00000        -533.654848       -14521.48727
     56       2.00000        -533.654792       -14521.48574
     57       2.00000        -533.654784       -14521.48552
     58       2.00000        -533.654784       -14521.48552
     59       2.00000        -533.654720       -14521.48378
     60       2.00000        -533.654665       -14521.48228
     61       2.00000        -533.654366       -14521.47414
     62       2.00000        -533.654366       -14521.47414
     63       2.00000        -533.654366       -14521.47414
     64       2.00000        -533.654366       -14521.47414
     65       2.00000        -533.654366       -14521.47414
     66       2.00000        -533.654366       -14521.47414
     67       2.00000        -533.654366       -14521.47414
     68       2.00000        -533.654366       -14521.47414
     69       2.00000        -533.654366       -14521.47414
     70       2.00000        -533.654366       -14521.47414
     71       2.00000        -533.653529       -14521.45138
     72       2.00000        -533.653529       -14521.45138
     73       2.00000        -460.388580       -12527.81067
     74       2.00000        -460.388579       -12527.81064
     75       2.00000        -460.388576       -12527.81057
     76       2.00000        -460.388546       -12527.80975
     77       2.00000        -460.388546       -12527.80973
     78       2.00000        -460.388543       -12527.80966
     79       2.00000        -460.388343       -12527.80421
     80       2.00000        -460.388342       -12527.80419
     81       2.00000        -460.388338       -12527.80408
     82       2.00000        -460.388319       -12527.80356
     83       2.00000        -460.388318       -12527.80354
     84       2.00000        -460.388314       -12527.80344
     85       2.00000        -460.388208       -12527.80054
     86       2.00000        -460.388207       -12527.80052
     87       2.00000        -460.388203       -12527.80042
     88       2.00000        -460.388184       -12527.79988
     89       2.00000        -460.388183       -12527.79987
     90       2.00000        -460.388179       -12527.79977
     91       2.00000        -460.387827       -12527.79019
     92       2.00000        -460.387827       -12527.79019
     93       2.00000        -460.387827       -12527.79019
     94       2.00000        -460.387827       -12527.79019
     95       2.00000        -460.387824       -12527.79010
     96       2.00000        -460.387824       -12527.79010
     97       2.00000        -460.387758       -12527.78829
     98       2.00000        -460.387748       -12527.78804
     99       2.00000        -460.387748       -12527.78803
    100       2.00000        -460.387639       -12527.78506
    101       2.00000        -460.387633       -12527.78491
    102       2.00000        -460.387631       -12527.78485
    103       2.00000        -460.387616       -12527.78444
    104       2.00000        -460.387611       -12527.78431
    105       2.00000        -460.387609       -12527.78425
    106       2.00000        -460.387524       -12527.78192
    107       2.00000        -460.387518       -12527.78178
    108       2.00000        -460.387516       -12527.78172
    109       2.00000        -460.387502       -12527.78133
    110       2.00000        -460.387495       -12527.78114
    111       2.00000        -460.387494       -12527.78111
    112       2.00000        -460.387488       -12527.78096
    113       2.00000        -460.387483       -12527.78081
    114       2.00000        -460.387481       -12527.78075
    115       2.00000        -460.387333       -12527.77674
    116       2.00000        -460.387328       -12527.77661
    117       2.00000        -460.387326       -12527.77656
    118       2.00000        -460.387182       -12527.77264
    119       2.00000        -460.387178       -12527.77252
    120       2.00000        -460.387176       -12527.77247
    121       2.00000        -460.386794       -12527.76207
    122       2.00000        -460.386793       -12527.76205
    123       2.00000        -460.386793       -12527.76205
    124       2.00000        -460.386755       -12527.76102
    125       2.00000        -460.386755       -12527.76100
    126       2.00000        -460.386755       -12527.76100
    127       2.00000        -460.386638       -12527.75784
    128       2.00000        -460.386636       -12527.75778
    129       2.00000        -460.386634       -12527.75772
    130       2.00000        -460.386582       -12527.75630
    131       2.00000        -460.386580       -12527.75626
    132       2.00000        -460.386578       -12527.75620
    133       2.00000        -460.386572       -12527.75604
    134       2.00000        -460.386572       -12527.75604
    135       2.00000        -460.386572       -12527.75604
    136       2.00000        -460.386572       -12527.75604
    137       2.00000        -460.386572       -12527.75604
    138       2.00000        -460.386572       -12527.75604
    139       2.00000        -460.386510       -12527.75435
    140       2.00000        -460.386509       -12527.75431
    141       2.00000        -460.386507       -12527.75425
    142       2.00000        -460.386455       -12527.75284
    143       2.00000        -460.386453       -12527.75280
    144       2.00000        -460.386451       -12527.75275
    145       2.00000        -460.386155       -12527.74468
    146       2.00000        -460.386155       -12527.74468
    147       2.00000        -460.386155       -12527.74468
    148       2.00000        -460.386155       -12527.74468
    149       2.00000        -460.386155       -12527.74468
    150       2.00000        -460.386155       -12527.74468
    151       2.00000        -460.386155       -12527.74468
    152       2.00000        -460.386155       -12527.74468
    153       2.00000        -460.386155       -12527.74468
    154       2.00000        -460.386155       -12527.74468
    155       2.00000        -460.386155       -12527.74468
    156       2.00000        -460.386155       -12527.74468
    157       2.00000        -460.386155       -12527.74468
    158       2.00000        -460.386155       -12527.74468
    159       2.00000        -460.386155       -12527.74468
    160       2.00000        -460.386155       -12527.74468
    161       2.00000        -460.386155       -12527.74468
    162       2.00000        -460.386155       -12527.74468
    163       2.00000        -460.386155       -12527.74468
    164       2.00000        -460.386155       -12527.74468
    165       2.00000        -460.386153       -12527.74462
    166       2.00000        -460.386153       -12527.74462
    167       2.00000        -460.386153       -12527.74462
    168       2.00000        -460.386153       -12527.74462
    169       2.00000        -460.386153       -12527.74462
    170       2.00000        -460.386153       -12527.74462
    171       2.00000        -460.386153       -12527.74462
    172       2.00000        -460.386153       -12527.74462
    173       2.00000        -460.386153       -12527.74462
    174       2.00000        -460.386153       -12527.74462
    175       2.00000        -460.385320       -12527.72197
    176       2.00000        -460.385320       -12527.72197
    177       2.00000        -460.385317       -12527.72188
    178       2.00000        -460.385317       -12527.72188
    179       2.00000        -460.385317       -12527.72188
    180       2.00000        -460.385317       -12527.72188
    181       2.00000        -124.236136        -3380.63726
    182       2.00000        -124.236101        -3380.63633
    183       2.00000        -124.235891        -3380.63060
    184       2.00000        -124.235867        -3380.62994
    185       2.00000        -124.235754        -3380.62687
    186       2.00000        -124.235730        -3380.62621
    187       2.00000        -124.235367        -3380.61635
    188       2.00000        -124.235367        -3380.61635
    189       2.00000        -124.235278        -3380.61391
    190       2.00000        -124.235163        -3380.61080
    191       2.00000        -124.235141        -3380.61019
    192       2.00000        -124.235046        -3380.60762
    193       2.00000        -124.235018        -3380.60685
    194       2.00000        -124.235010        -3380.60663
    195       2.00000        -124.234853        -3380.60236
    196       2.00000        -124.234700        -3380.59819
    197       2.00000        -124.234308        -3380.58753
    198       2.00000        -124.234269        -3380.58646
    199       2.00000        -124.234145        -3380.58310
    200       2.00000        -124.234088        -3380.58154
    201       2.00000        -124.234083        -3380.58140
    202       2.00000        -124.234083        -3380.58140
    203       2.00000        -124.234015        -3380.57956
    204       2.00000        -124.233959        -3380.57803
    205       2.00000        -124.233655        -3380.56975
    206       2.00000        -124.233655        -3380.56975
    207       2.00000        -124.233655        -3380.56975
    208       2.00000        -124.233655        -3380.56975
    209       2.00000        -124.233655        -3380.56975
    210       2.00000        -124.233655        -3380.56975
    211       2.00000        -124.233655        -3380.56975
    212       2.00000        -124.233655        -3380.56975
    213       2.00000        -124.233655        -3380.56975
    214       2.00000        -124.233655        -3380.56975
    215       2.00000        -124.232799        -3380.54645
    216       2.00000        -124.232799        -3380.54645
    217       2.00000        -103.453567        -2815.11479
    218       2.00000        -103.453559        -2815.11456
    219       2.00000        -103.453536        -2815.11395
    220       2.00000        -103.453532        -2815.11383
    221       2.00000        -103.453525        -2815.11365
    222       2.00000        -103.453502        -2815.11303
    223       2.00000        -103.453324        -2815.10817
    224       2.00000        -103.453317        -2815.10799
    225       2.00000        -103.453300        -2815.10753
    226       2.00000        -103.453292        -2815.10731
    227       2.00000        -103.453286        -2815.10714
    228       2.00000        -103.453262        -2815.10649
    229       2.00000        -103.453184        -2815.10438
    230       2.00000        -103.453181        -2815.10428
    231       2.00000        -103.453159        -2815.10370
    232       2.00000        -103.453157        -2815.10363
    233       2.00000        -103.453150        -2815.10345
    234       2.00000        -103.453126        -2815.10279
    235       2.00000        -103.452794        -2815.09375
    236       2.00000        -103.452794        -2815.09375
    237       2.00000        -103.452794        -2815.09375
    238       2.00000        -103.452794        -2815.09375
    239       2.00000        -103.452768        -2815.09304
    240       2.00000        -103.452768        -2815.09304
    241       2.00000        -103.452746        -2815.09246
    242       2.00000        -103.452670        -2815.09038
    243       2.00000        -103.452668        -2815.09033
    244       2.00000        -103.452615        -2815.08889
    245       2.00000        -103.452590        -2815.08822
    246       2.00000        -103.452573        -2815.08773
    247       2.00000        -103.452554        -2815.08722
    248       2.00000        -103.452551        -2815.08715
    249       2.00000        -103.452533        -2815.08665
    250       2.00000        -103.452498        -2815.08569
    251       2.00000        -103.452475        -2815.08508
    252       2.00000        -103.452463        -2815.08475
    253       2.00000        -103.452456        -2815.08455
    254       2.00000        -103.452437        -2815.08405
    255       2.00000        -103.452419        -2815.08356
    256       2.00000        -103.452418        -2815.08353
    257       2.00000        -103.452411        -2815.08332
    258       2.00000        -103.452401        -2815.08305
    259       2.00000        -103.452300        -2815.08033
    260       2.00000        -103.452264        -2815.07933
    261       2.00000        -103.452246        -2815.07885
    262       2.00000        -103.452145        -2815.07609
    263       2.00000        -103.452112        -2815.07518
    264       2.00000        -103.452094        -2815.07471
    265       2.00000        -103.451730        -2815.06480
    266       2.00000        -103.451722        -2815.06460
    267       2.00000        -103.451722        -2815.06460
    268       2.00000        -103.451690        -2815.06370
    269       2.00000        -103.451684        -2815.06354
    270       2.00000        -103.451684        -2815.06354
    271       2.00000        -103.451578        -2815.06067
    272       2.00000        -103.451562        -2815.06024
    273       2.00000        -103.451545        -2815.05977
    274       2.00000        -103.451520        -2815.05908
    275       2.00000        -103.451506        -2815.05870
    276       2.00000        -103.451500        -2815.05853
    277       2.00000        -103.451500        -2815.05853
    278       2.00000        -103.451500        -2815.05853
    279       2.00000        -103.451500        -2815.05853
    280       2.00000        -103.451500        -2815.05853
    281       2.00000        -103.451500        -2815.05853
    282       2.00000        -103.451488        -2815.05823
    283       2.00000        -103.451445        -2815.05705
    284       2.00000        -103.451434        -2815.05674
    285       2.00000        -103.451416        -2815.05627
    286       2.00000        -103.451388        -2815.05549
    287       2.00000        -103.451378        -2815.05522
    288       2.00000        -103.451361        -2815.05475
    289       2.00000        -103.451077        -2815.04703
    290       2.00000        -103.451077        -2815.04703
    291       2.00000        -103.451077        -2815.04703
    292       2.00000        -103.451077        -2815.04703
    293       2.00000        -103.451077        -2815.04703
    294       2.00000        -103.451077        -2815.04703
    295       2.00000        -103.451077        -2815.04703
    296       2.00000        -103.451077        -2815.04703
    297       2.00000        -103.451077        -2815.04703
    298       2.00000        -103.451077        -2815.04703
    299       2.00000        -103.451077        -2815.04703
    300       2.00000        -103.451077        -2815.04703
    301       2.00000        -103.451077        -2815.04703
    302       2.00000        -103.451077        -2815.04703
    303       2.00000        -103.451077        -2815.04703
    304       2.00000        -103.451077        -2815.04703
    305       2.00000        -103.451077        -2815.04703
    306       2.00000        -103.451077        -2815.04703
    307       2.00000        -103.451077        -2815.04703
    308       2.00000        -103.451077        -2815.04703
    309       2.00000        -103.451059        -2815.04656
    310       2.00000        -103.451059        -2815.04656
    311       2.00000        -103.451059        -2815.04655
    312       2.00000        -103.451059        -2815.04655
    313       2.00000        -103.451059        -2815.04655
    314       2.00000        -103.451059        -2815.04655
    315       2.00000        -103.451059        -2815.04655
    316       2.00000        -103.451059        -2815.04655
    317       2.00000        -103.451059        -2815.04655
    318       2.00000        -103.451059        -2815.04655
    319       2.00000        -103.450231        -2815.02403
    320       2.00000        -103.450231        -2815.02403
    321       2.00000        -103.450205        -2815.02332
    322       2.00000        -103.450205        -2815.02332
    323       2.00000        -103.450205        -2815.02332
    324       2.00000        -103.450205        -2815.02332
    325       2.00000         -81.369432        -2214.17490
    326       2.00000         -81.369432        -2214.17489
    327       2.00000         -81.369418        -2214.17453
    328       2.00000         -81.369413        -2214.17439
    329       2.00000         -81.369410        -2214.17431
    330       2.00000         -81.369398        -2214.17397
    331       2.00000         -81.369397        -2214.17396
    332       2.00000         -81.369384        -2214.17359
    333       2.00000         -81.369380        -2214.17348
    334       2.00000         -81.369377        -2214.17339
    335       2.00000         -81.369191        -2214.16835
    336       2.00000         -81.369191        -2214.16835
    337       2.00000         -81.369173        -2214.16784
    338       2.00000         -81.369169        -2214.16774
    339       2.00000         -81.369167        -2214.16770
    340       2.00000         -81.369167        -2214.16769
    341       2.00000         -81.369164        -2214.16760
    342       2.00000         -81.369149        -2214.16720
    343       2.00000         -81.369144        -2214.16707
    344       2.00000         -81.369140        -2214.16695
    345       2.00000         -81.369054        -2214.16461
    346       2.00000         -81.369054        -2214.16461
    347       2.00000         -81.369036        -2214.16411
    348       2.00000         -81.369033        -2214.16405
    349       2.00000         -81.369029        -2214.16394
    350       2.00000         -81.369029        -2214.16394
    351       2.00000         -81.369028        -2214.16391
    352       2.00000         -81.369011        -2214.16345
    353       2.00000         -81.369009        -2214.16340
    354       2.00000         -81.369004        -2214.16326
    355       2.00000         -81.368666        -2214.15405
    356       2.00000         -81.368666        -2214.15405
    357       2.00000         -81.368666        -2214.15405
    358       2.00000         -81.368666        -2214.15405
    359       2.00000         -81.368650        -2214.15363
    360       2.00000         -81.368650        -2214.15363
    361       2.00000         -81.368650        -2214.15363
    362       2.00000         -81.368650        -2214.15363
    363       2.00000         -81.368645        -2214.15350
    364       2.00000         -81.368645        -2214.15350
    365       2.00000         -81.368599        -2214.15223
    366       2.00000         -81.368584        -2214.15183
    367       2.00000         -81.368583        -2214.15180
    368       2.00000         -81.368538        -2214.15057
    369       2.00000         -81.368538        -2214.15057
    370       2.00000         -81.368475        -2214.14887
    371       2.00000         -81.368469        -2214.14871
    372       2.00000         -81.368458        -2214.14840
    373       2.00000         -81.368451        -2214.14822
    374       2.00000         -81.368446        -2214.14808
    375       2.00000         -81.368435        -2214.14777
    376       2.00000         -81.368433        -2214.14772
    377       2.00000         -81.368432        -2214.14769
    378       2.00000         -81.368412        -2214.14715
    379       2.00000         -81.368411        -2214.14712
    380       2.00000         -81.368358        -2214.14568
    381       2.00000         -81.368352        -2214.14552
    382       2.00000         -81.368341        -2214.14522
    383       2.00000         -81.368334        -2214.14501
    384       2.00000         -81.368324        -2214.14475
    385       2.00000         -81.368323        -2214.14472
    386       2.00000         -81.368319        -2214.14461
    387       2.00000         -81.368317        -2214.14456
    388       2.00000         -81.368316        -2214.14454
[...]
   2732       0.00000           2.589365           70.46020
   2733       0.00000           2.590891           70.50172
   2734       0.00000           2.596098           70.64342
   2735       0.00000           2.598679           70.71367
   2736       0.00000           2.599567           70.73783
   2737       0.00000           2.601480           70.78989
   2738       0.00000           2.606080           70.91503
   2739       0.00000           2.606877           70.93673
   2740       0.00000           2.607721           70.95971
   2741       0.00000           2.609450           71.00676
   2742       0.00000           2.612029           71.07691
   2743       0.00000           2.613733           71.12330
   2744       0.00000           2.618657           71.25728
   2745       0.00000           2.620440           71.30580
   2746       0.00000           2.622788           71.36969
   2747       0.00000           2.624389           71.41325
   2748       0.00000           2.626283           71.46480
   2749       0.00000           2.629218           71.54465
   2750       0.00000           2.632394           71.63109
   2751       0.00000           2.634832           71.69743
   2752       0.00000           2.639367           71.82082
   2753       0.00000           2.643542           71.93445
   2754       0.00000           2.644759           71.96756
   2755       0.00000           2.647853           72.05175
   2756       0.00000           2.648942           72.08138
   2757       0.00000           2.654814           72.24117
   2758       0.00000           2.656650           72.29113
   2759       0.00000           2.662406           72.44775
   2760       0.00000           2.664798           72.51284
   2761       0.00000           2.665551           72.53332
   2762       0.00000           2.671339           72.69083
   2763       0.00000           2.673104           72.73886
   2764       0.00000           2.674765           72.78405
   2765       0.00000           2.676818           72.83992
   2766       0.00000           2.680691           72.94531
   2767       0.00000           2.683590           73.02420
   2768       0.00000           2.685884           73.08662
   2769       0.00000           2.690571           73.21415
   2770       0.00000           2.692888           73.27722
   2771       0.00000           2.696622           73.37881
   2772       0.00000           2.700738           73.49081
   2773       0.00000           2.705007           73.60698
   2774       0.00000           2.709181           73.72057
   2775       0.00000           2.710587           73.75882
   2776       0.00000           2.713536           73.83908
   2777       0.00000           2.715964           73.90515
   2778       0.00000           2.719084           73.99003
   2779       0.00000           2.720460           74.02749
   2780       0.00000           2.723893           74.12090
   2781       0.00000           2.726617           74.19504
   2782       0.00000           2.728426           74.24425
   2783       0.00000           2.734487           74.40919
   2784       0.00000           2.737869           74.50119
   2785       0.00000           2.740865           74.58274
   2786       0.00000           2.741945           74.61212
   2787       0.00000           2.747356           74.75936
   2788       0.00000           2.748174           74.78162
   2789       0.00000           2.751930           74.88382
   2790       0.00000           2.754060           74.94179
   2791       0.00000           2.755691           74.98616
   2792       0.00000           2.761391           75.14126
   2793       0.00000           2.768568           75.33658
   2794       0.00000           2.776748           75.55915
   2795       0.00000           2.782146           75.70606
   2796       0.00000           2.785334           75.79278
   2797       0.00000           2.789545           75.90738
   2798       0.00000           2.790278           75.92734
   2799       0.00000           2.792771           75.99515
   2800       0.00000           2.795067           76.05763
   2801       0.00000           2.798291           76.14537
   2802       0.00000           2.800842           76.21479
   2803       0.00000           2.805746           76.34822
   2804       0.00000           2.808821           76.43191
   2805       0.00000           2.814508           76.58666
   2806       0.00000           2.816949           76.65309
   2807       0.00000           2.821916           76.78824
   2808       0.00000           2.822633           76.80776
   2809       0.00000           2.827289           76.93445
   2810       0.00000           2.829020           76.98156
   2811       0.00000           2.838580           77.24171
   2812       0.00000           2.842378           77.34504
   2813       0.00000           2.845163           77.42082
   2814       0.00000           2.851732           77.59957
   2815       0.00000           2.853822           77.65646
   2816       0.00000           2.854497           77.67482
   2817       0.00000           2.858332           77.77916
   2818       0.00000           2.859615           77.81409
   2819       0.00000           2.862698           77.89797
   2820       0.00000           2.865867           77.98421
   2821       0.00000           2.873100           78.18104
   2822       0.00000           2.873414           78.18956
   2823       0.00000           2.877405           78.29819
   2824       0.00000           2.879386           78.35207
   2825       0.00000           2.882087           78.42559
   2826       0.00000           2.886653           78.54984
   2827       0.00000           2.889597           78.62994
   2828       0.00000           2.892988           78.72220
   2829       0.00000           2.900617           78.92980
   2830       0.00000           2.917046           79.37686
   2831       0.00000           2.921129           79.48796
   2832       0.00000           2.925285           79.60106
   2833       0.00000           2.925781           79.61455
   2834       0.00000           2.928419           79.68635
   2835       0.00000           2.933726           79.83073
   2836       0.00000           2.935990           79.89235
   2837       0.00000           2.937065           79.92160
   2838       0.00000           2.939919           79.99927
   2839       0.00000           2.941863           80.05216
   2840       0.00000           2.947639           80.20933
   2841       0.00000           2.948552           80.23419
   2842       0.00000           2.956750           80.45726
   2843       0.00000           2.958038           80.49232
   2844       0.00000           2.964099           80.65725
   2845       0.00000           2.965556           80.69689
   2846       0.00000           2.967477           80.74915
   2847       0.00000           2.974930           80.95197
   2848       0.00000           2.978962           81.06169
   2849       0.00000           2.990134           81.36570
   2850       0.00000           3.008447           81.86401
   2851       0.00000           3.017258           82.10377
   2852       0.00000           3.030755           82.47105
   2853       0.00000           3.035340           82.59581
   2854       0.00000           3.040363           82.73248
   2855       0.00000           3.044445           82.84355
   2856       0.00000           3.052108           83.05208
   2857       0.00000           3.053706           83.09556
   2858       0.00000           3.058623           83.22938
   2859       0.00000           3.063796           83.37013
   2860       0.00000           3.064960           83.40181
   2861       0.00000           3.067539           83.47199
   2862       0.00000           3.073619           83.63742
   2863       0.00000           3.075361           83.68483
   2864       0.00000           3.083048           83.89400
   2865       0.00000           3.090775           84.10427
   2866       0.00000           3.097606           84.29015
   2867       0.00000           3.104082           84.46637
   2868       0.00000           3.115618           84.78027
   2869       0.00000           3.124736           85.02838
   2870       0.00000           3.128470           85.13000
   2871       0.00000           3.138194           85.39461
   2872       0.00000           3.143961           85.55153
   2873       0.00000           3.154512           85.83863
   2874       0.00000           3.179380           86.51532
   2875       0.00000           3.194173           86.91786
   2876       0.00000           3.204862           87.20873
   2877       0.00000           3.207300           87.27508
   2878       0.00000           3.213512           87.44411
   2879       0.00000           3.248024           88.38322
   2880       0.00000           3.259636           88.69920
   2881       0.00000           3.261779           88.75752
   2882       0.00000           3.272674           89.05400
   2883       0.00000           3.317594           90.27632
   2884       0.00000           3.334036           90.72373
   2885       0.00000           3.339524           90.87306
   2886       0.00000           3.408613           92.75308
   2887       0.00000           3.438306           93.56107
   2888       0.00000           3.657297           99.52012
   2889       0.00000           3.717377          101.15497
   2890       0.00000           4.248271          115.60133
   2891       0.00000           4.631328          126.02486
   2892       0.00000           4.993352          135.87601
   2893       0.00000           6.170983          167.92100

  Highest occupied state (VBM) at     -4.62750579 eV
  | Occupation number:      1.97531757

  Lowest unoccupied state (CBM) at    -4.59573778 eV
  | Occupation number:      0.02468243

  Overall HOMO-LUMO gap:      0.03176800 eV.
  Writing Kohn-Sham orbitals (eigenvectors) to a file "mos.aims"


  Self-consistency cycle converged.

  End self-consistency iteration #    27       :  max(cpu_time)    wall_clock(cpu1)
  | Time for this iteration                    :       48.558 s          49.815 s
  | Charge density update                      :        5.635 s           5.635 s
  | Density mixing                             :        0.029 s           0.029 s
  | Hartree multipole update                   :        0.009 s           0.009 s
  | Hartree multipole summation                :        0.360 s           0.360 s
  | Integration                                :        1.774 s           1.774 s
  | Solution of K.-S. eqns.                    :       23.604 s          23.604 s
  | Total energy evaluation                    :        0.000 s           0.001 s

  Partial memory accounting:
  | Current value for overall tracked memory usage on task 0  :         133.938 MB
  | Peak value for overall tracked memory usage on task 0     :         401.806 MB after allocating eigenvalue_tmp
  | Largest tracked array allocation on task 0 so far         :          66.956 MB  when allocating +KS_eigenvector
  Note:  These values currently only include a subset of arrays which are explicitly tracked.
  The "true" memory usage will be greater.
------------------------------------------------------------
  |------------------------------------------
  | Final ELSI Output
  |------------------------------------------
  | Number of basis functions :         2893
  | Number of electrons       :       2904.0
  | Number of states          :         2893
  | Solver                    :         ELPA
  | Parallel mode             :  SINGLE_PROC
  | Matrix format             :  BLACS_DENSE
  |------------------------------------------
  | ELSI Project (c)  elsi-interchange.org
  |------------------------------------------
  Writing cluster restart information to file aims.restart
  Restart file: Writing      1456 states.

  Energy and forces in a compact form:
  | Total energy uncorrected      :         -0.192932643953573E+08 eV
  | Total energy corrected        :         -0.192932643958099E+08 eV  <-- do not rely on this value for anything but (periodic) metals
  | Electronic free energy        :         -0.192932643962625E+08 eV

  ------------------------------------ 
  Start decomposition of the XC Energy 
  ------------------------------------ 
  X and C from original XC functional choice 
  Hartree-Fock Energy :          0.000000000 Ha              0.000000000 eV
  X Energy            :     -13119.187460946 Ha        -356991.254327375 eV
  C Energy            :       -176.442852112 Ha          -4801.254291099 eV
  Total XC Energy     :     -13295.630313058 Ha        -361792.508618474 eV
  ------------------------------------ 
  LDA X and C from self-consistent density 
  X Energy LDA        :     -12590.165389451 Ha        -342595.831330935 eV
  C Energy LDA        :       -301.764202259 Ha          -8211.421736019 eV
  ------------------------------------ 
  End decomposition of the XC Energy 
  ------------------------------------ 

------------------------------------------------------------

------------------------------------------------------------------------------
  Final output of selected total energy values:

  The following output summarizes some interesting total energy values
  at the end of a run (AFTER all relaxation, molecular dynamics, etc.).

  | Total energy of the DFT / Hartree-Fock s.c.f. calculation      :      -19293264.395357318 eV
  | Final zero-broadening corrected energy (caution - metals only) :      -19293264.395809896 eV
  | For reference only, the value of 1 Hartree used in FHI-aims is :             27.211384500 eV

  Before relying on these values, please be sure to understand exactly which
  total energy value is referred to by a given number. Different objects may
  all carry the same name 'total energy'. Definitions:

  Total energy of the DFT / Hartree-Fock s.c.f. calculation:
  | Note that this energy does not include ANY quantities calculated after the
  | s.c.f. cycle, in particular not ANY RPA, MP2, etc. many-body perturbation terms.

  Final zero-broadening corrected energy:
  | For metallic systems only, a broadening of the occupation numbers at the Fermi
  | level can be extrapolated back to zero broadening by an electron-gas inspired
  | formula. For all systems that are not real metals, this value can be
  | meaningless and should be avoided.

------------------------------------------------------------------------------
  Methods described in the following list of references were used in this FHI-aims run.
  If you publish the results, please make sure to cite these reference if they apply.
  FHI-aims is an academic code, and for our developers (often, Ph.D. students
  and postdocs), scientific credit in the community is essential.
  Thank you for helping us!

  For any use of FHI-aims, please cite:

    Volker Blum, Ralf Gehrke, Felix Hanke, Paula Havu, Ville Havu,
    Xinguo Ren, Karsten Reuter, and Matthias Scheffler
    'Ab initio molecular simulations with numeric atom-centered orbitals'
    Computer Physics Communications 180, 2175-2196 (2009)
    http://dx.doi.org/10.1016/j.cpc.2009.06.022


  The scalable eigensolver library ELPA was used in your run.
  ELPA is essential especially for large systems on hundreds or thousands of CPUs.
  For ELPA, please cite:

    Andreas Marek, Volker Blum, Rainer Johanni, Ville Havu, Bruno Lang,
    Thomas Auckenthaler, Alexander Heinecke, Hans-Joachim Bungartz, and Hermann Lederer,
    'The ELPA Library - Scalable Parallel Eigenvalue Solutions
    for Electronic Structure Theory and Computational Science'
    The Journal of Physics: Condensed Matter 26, 213201 (2014).
    http://dx.doi.org/10.1088/0953-8984/26/21/213201


  The ELSI infrastructure was used in your run to solve the Kohn-Sham electronic structure.
  Please check out http://elsi-interchange.org to learn more.
  If scalability is important for your project, please acknowledge ELSI by citing:

    V. W-z. Yu, F. Corsetti, A. Garcia, W. P. Huhn, M. Jacquelin, W. Jia,
    B. Lange, L. Lin, J. Lu, W. Mi, A. Seifitokaldani, A. Vazquez-Mayagoitia,
    C. Yang, H. Yang, and V. Blum
    'ELSI: A unified software interface for Kohn-Sham electronic structure solvers'
    Computer Physics Communications 222, 267-285 (2018).
    http://dx.doi.org/10.1016/j.cpc.2017.09.007


  For the real-space grid partitioning and parallelization used in this calculation, please cite:

    Ville Havu, Volker Blum, Paula Havu, and Matthias Scheffler,
    'Efficient O(N) integration for all-electron electronic structure calculation'
    'using numerically tabulated basis functions'
    Journal of Computational Physics 228, 8367-8379 (2009).
    http://dx.doi.org/10.1016/j.jcp.2009.08.008

  Of course, there are many other important community references, e.g., those cited in the
  above references. Our list is limited to references that describe implementations in the
  FHI-aims code. The reason is purely practical (length of this list) - please credit others as well.

 * A warning was issued further up regarding the accuracy of onsite integrals.
   An integral with a negative eigenvalue was among the flagged integrals.
   In most standard situations, this warning is probably harmless.
   If needed, this can be verified by adjusting the radial_multiplier flag.

------------------------------------------------------------
          Leaving FHI-aims.
          Date     :  20221012, Time     :  120621.620

          Computational steps:
          | Number of self-consistency cycles          :           27
          | Number of SCF (re)initializations          :            1

          Detailed time accounting                     :  max(cpu_time)    wall_clock(cpu1)
          | Total time                                 :     1038.896 s        1039.353 s
          | Preparation time                           :        0.542 s           0.534 s
          | Boundary condition initalization           :        0.000 s           0.000 s
          | Grid partitioning                          :        0.244 s           0.245 s
          | Preloading free-atom quantities on grid    :        0.005 s           0.005 s
          | Free-atom superposition energy             :        0.052 s           0.051 s
          | Total time for integrations                :       51.231 s          51.233 s
          | Total time for solution of K.-S. equations :      683.351 s         678.732 s
          | Total time for density update              :      152.858 s         152.852 s
          | Total time for mixing                      :        0.542 s           0.541 s
          | Total time for Hartree multipole update    :        0.257 s           0.257 s
          | Total time for Hartree multipole sum       :        9.746 s           9.746 s
          | Total time for total energy evaluation     :        0.008 s           0.014 s
          | Total time for scaled ZORA corrections     :        0.000 s           0.000 s

          Partial memory accounting:
          | Residual value for overall tracked memory usage across tasks :           0.000 MB (should be 0.000 MB)
          | Peak values for overall tracked memory usage (after allocating eigenvalue_tmp):
          |   Minimum:      401.806 MB (on task  1)
          |   Maximum:      401.806 MB (on task  1)
          |   Average:      401.806 MB
          | Largest tracked array allocation (+KS_eigenvector):
          |   Minimum:       66.956 MB (on task  1)
          |   Maximum:       66.956 MB (on task  1)
          |   Average:       66.956 MB
          Note:  These values currently only include a subset of arrays which are explicitly tracked.
          The "true" memory usage will be greater.

          Have a nice day.
------------------------------------------------------------
